ITEM: TIMESTEP
100000
ITEM: NUMBER OF ATOMS
400
ITEM: BOX BOUNDS pp pp pp
0.0000000000000000e+00 1.9518001458970666e+01
0.0000000000000000e+00 1.9518001458970666e+01
-4.8795003647426660e-01 4.8795003647426660e-01
ITEM: ATOMS id type xs ys zs
61 1 0.0238167 0.00667731 0.5
62 1 0.115454 0.0332559 0.5
125 1 0.165247 0.0185797 0.5
133 1 0.213971 0.0015595 0.5
83 1 0.30857 0.0165404 0.5
85 1 0.359745 0.00227846 0.5
309 1 0.450181 0.0167617 0.5
14 1 0.548219 0.0318511 0.5
395 1 0.592283 0.0105304 0.5
319 1 0.684063 0.0228723 0.5
94 1 0.731631 0.00335339 0.5
78 1 0.833908 0.0325224 0.5
358 1 0.884828 0.00826539 0.5
80 1 0.967471 0.0281655 0.5
384 1 0.0198756 0.0654888 0.5
21 1 0.0665207 0.0440035 0.5
104 1 0.212532 0.0535934 0.5
146 1 0.263934 0.0362948 0.5
47 1 0.344867 0.0482527 0.5
69 1 0.399011 0.0354207 0.5
144 1 0.497566 0.0461937 0.5
337 1 0.587006 0.0616826 0.5
354 1 0.633619 0.0401561 0.5
35 1 0.722843 0.0595467 0.5
275 1 0.770743 0.0416329 0.5
165 1 0.875666 0.057256 0.5
39 1 0.920398 0.0414563 0.5
343 1 0.0556275 0.0999993 0.5
166 1 0.108878 0.0943234 0.5
383 1 0.154496 0.0783108 0.5
68 1 0.245761 0.0942212 0.5
67 1 0.300449 0.0708883 0.5
32 1 0.398525 0.0859107 0.5
95 1 0.447406 0.0706815 0.5
388 1 0.533216 0.0799286 0.5
86 1 0.625491 0.0908979 0.5
33 1 0.672701 0.071445 0.5
361 1 0.776314 0.0899715 0.5
356 1 0.823234 0.0813837 0.5
16 1 0.914435 0.0931782 0.5
398 1 0.966831 0.0822464 0.5
81 1 0.0045608 0.115321 0.5
142 1 0.147397 0.127804 0.5
204 1 0.196738 0.106159 0.5
50 1 0.285844 0.130075 0.5
187 1 0.345105 0.104564 0.5
65 1 0.429678 0.129371 0.5
71 1 0.484116 0.105679 0.5
148 1 0.531482 0.128354 0.5
11 1 0.576555 0.109708 0.5
51 1 0.672418 0.120487 0.5
357 1 0.728491 0.110738 0.5
54 1 0.817529 0.131395 0.5
135 1 0.865622 0.110168 0.5
63 1 0.0516624 0.154041 0.5
364 1 0.10026 0.144385 0.5
193 1 0.186772 0.160555 0.5
109 1 0.237215 0.147783 0.5
88 1 0.382662 0.148096 0.5
44 1 0.472608 0.15534 0.5
386 1 0.567854 0.161124 0.5
56 1 0.618701 0.144164 0.5
103 1 0.713906 0.166215 0.5
17 1 0.767048 0.144086 0.5
318 1 0.907125 0.145353 0.5
60 1 0.958551 0.136408 0.5
3 1 0.998072 0.164859 0.5
64 1 0.136123 0.180267 0.5
225 1 0.225916 0.196898 0.5
112 1 0.273217 0.183002 0.5
29 1 0.326729 0.170209 0.5
107 1 0.380345 0.199045 0.5
128 1 0.427944 0.186907 0.5
38 1 0.516377 0.179698 0.5
372 1 0.607733 0.196443 0.5
195 1 0.66022 0.176938 0.5
141 1 0.755887 0.191621 0.5
196 1 0.809775 0.180445 0.5
228 1 0.858807 0.16887 0.5
139 1 0.898064 0.197759 0.5
380 1 0.951993 0.184665 0.5
45 1 0.0284283 0.203728 0.5
100 1 0.0831142 0.200113 0.5
143 1 0.125175 0.228514 0.5
172 1 0.17643 0.212182 0.5
110 1 0.271492 0.233246 0.5
132 1 0.319775 0.228501 0.5
129 1 0.453992 0.227295 0.5
66 1 0.508532 0.231718 0.5
396 1 0.561342 0.212225 0.5
131 1 0.6473 0.230067 0.5
55 1 0.692826 0.21276 0.5
378 1 0.798275 0.228802 0.5
75 1 0.845764 0.216828 0.5
208 1 0.983491 0.227195 0.5
186 1 0.0291023 0.257206 0.5
46 1 0.0763151 0.249938 0.5
190 1 0.204594 0.256935 0.5
152 1 0.356264 0.260865 0.5
108 1 0.408184 0.244483 0.5
134 1 0.597062 0.244544 0.5
18 1 0.692549 0.262429 0.5
159 1 0.737753 0.239171 0.5
77 1 0.835291 0.265831 0.5
115 1 0.88215 0.254008 0.5
382 1 0.931262 0.237327 0.5
205 1 0.0594457 0.298702 0.5
98 1 0.10777 0.288723 0.5
167 1 0.15639 0.266674 0.5
185 1 0.248736 0.288857 0.5
113 1 0.2975 0.275848 0.5
171 1 0.394632 0.293669 0.5
149 1 0.445202 0.279454 0.5
48 1 0.496371 0.277593 0.5
375 1 0.549236 0.266721 0.5
15 1 0.586978 0.29642 0.5
194 1 0.635464 0.279895 0.5
379 1 0.728424 0.296759 0.5
2 1 0.773551 0.275726 0.5
223 1 0.917382 0.29057 0.5
359 1 0.969787 0.279893 0.5
124 1 0.0105018 0.310139 0.5
168 1 0.145388 0.322903 0.5
287 1 0.194046 0.306949 0.5
263 1 0.282235 0.325034 0.5
290 1 0.334318 0.311247 0.5
169 1 0.478716 0.324405 0.5
154 1 0.52932 0.311577 0.5
174 1 0.626619 0.327512 0.5
53 1 0.681766 0.314278 0.5
116 1 0.769566 0.332295 0.5
41 1 0.81488 0.317095 0.5
97 1 0.864633 0.307523 0.5
96 1 0.952753 0.326729 0.5
156 1 0.0407165 0.350198 0.5
120 1 0.0935643 0.336814 0.5
147 1 0.189034 0.364285 0.5
229 1 0.23852 0.340441 0.5
189 1 0.325059 0.362413 0.5
250 1 0.377884 0.340025 0.5
328 1 0.427015 0.3339 0.5
93 1 0.517101 0.362046 0.5
170 1 0.568415 0.351259 0.5
76 1 0.717033 0.35609 0.5
222 1 0.852046 0.358724 0.5
122 1 0.902476 0.34177 0.5
74 1 0.989718 0.360758 0.5
79 1 0.0785845 0.386067 0.5
207 1 0.126996 0.375226 0.5
243 1 0.222179 0.398712 0.5
247 1 0.268783 0.380589 0.5
188 1 0.360944 0.39787 0.5
267 1 0.419542 0.387741 0.5
330 1 0.469724 0.374777 0.5
394 1 0.553728 0.396838 0.5
211 1 0.601983 0.383915 0.5
153 1 0.657612 0.367638 0.5
130 1 0.751631 0.393429 0.5
37 1 0.798669 0.379358 0.5
87 1 0.891907 0.391558 0.5
203 1 0.942139 0.377657 0.5
241 1 0.0248719 0.408166 0.5
183 1 0.118806 0.423799 0.5
210 1 0.171564 0.420621 0.5
282 1 0.266415 0.430689 0.5
227 1 0.314804 0.415017 0.5
245 1 0.446073 0.427171 0.5
224 1 0.502827 0.410554 0.5
264 1 0.589518 0.432953 0.5
177 1 0.641659 0.415013 0.5
157 1 0.697281 0.400411 0.5
59 1 0.787647 0.430504 0.5
19 1 0.834553 0.418495 0.5
217 1 0.976496 0.423444 0.5
164 1 0.0157614 0.455933 0.5
300 1 0.0709537 0.435585 0.5
240 1 0.21224 0.448661 0.5
226 1 0.303225 0.466401 0.5
151 1 0.350366 0.457878 0.5
373 1 0.39686 0.440604 0.5
191 1 0.490744 0.459467 0.5
326 1 0.537389 0.444835 0.5
175 1 0.681956 0.449729 0.5
89 1 0.731597 0.440988 0.5
40 1 0.820172 0.46607 0.5
117 1 0.882569 0.446134 0.5
200 1 0.931758 0.438426 0.5
329 1 0.0575104 0.485521 0.5
285 1 0.110942 0.472597 0.5
184 1 0.162126 0.470914 0.5
242 1 0.203291 0.498531 0.5
261 1 0.251792 0.493737 0.5
348 1 0.386954 0.495384 0.5
150 1 0.438519 0.480327 0.5
209 1 0.527557 0.496745 0.5
91 1 0.572228 0.481674 0.5
192 1 0.622744 0.46795 0.5
173 1 0.712831 0.492571 0.5
155 1 0.773822 0.482595 0.5
181 1 0.864759 0.498055 0.5
82 1 0.912754 0.486395 0.5
163 1 0.969561 0.473575 0.5
145 1 0.0127847 0.506913 0.5
260 1 0.0990849 0.521134 0.5
239 1 0.150901 0.522014 0.5
206 1 0.284355 0.529005 0.5
302 1 0.341332 0.516469 0.5
266 1 0.422476 0.531372 0.5
249 1 0.476929 0.514641 0.5
331 1 0.566014 0.532083 0.5
140 1 0.617867 0.521638 0.5
34 1 0.665047 0.507155 0.5
136 1 0.813959 0.514869 0.5
244 1 0.95051 0.520131 0.5
221 1 0.0478453 0.539083 0.5
246 1 0.182575 0.557897 0.5
161 1 0.236941 0.54362 0.5
353 1 0.371264 0.55715 0.5
251 1 0.504584 0.556653 0.5
310 1 0.654973 0.557686 0.5
102 1 0.699815 0.542273 0.5
58 1 0.749937 0.533432 0.5
253 1 0.792281 0.563328 0.5
160 1 0.848212 0.55521 0.5
119 1 0.898308 0.535882 0.5
283 1 0.991762 0.554597 0.5
180 1 0.0304766 0.585855 0.5
320 1 0.0898404 0.575336 0.5
182 1 0.138123 0.576327 0.5
349 1 0.261629 0.587925 0.5
301 1 0.316354 0.571543 0.5
393 1 0.404638 0.592378 0.5
236 1 0.453011 0.570204 0.5
212 1 0.549465 0.585221 0.5
248 1 0.604282 0.570935 0.5
234 1 0.691147 0.599014 0.5
215 1 0.740708 0.582253 0.5
237 1 0.886481 0.58569 0.5
162 1 0.938952 0.572855 0.5
214 1 0.072809 0.622586 0.5
218 1 0.160142 0.621244 0.5
265 1 0.20845 0.610325 0.5
308 1 0.297419 0.621373 0.5
306 1 0.355231 0.607843 0.5
312 1 0.443771 0.625806 0.5
138 1 0.491409 0.605498 0.5
111 1 0.586369 0.619322 0.5
232 1 0.639281 0.610912 0.5
118 1 0.731829 0.62926 0.5
158 1 0.780632 0.613791 0.5
216 1 0.832469 0.6041 0.5
137 1 0.927954 0.620439 0.5
262 1 0.981931 0.602517 0.5
123 1 0.0153903 0.64367 0.5
281 1 0.115859 0.644372 0.5
284 1 0.202412 0.663312 0.5
25 1 0.249089 0.646655 0.5
367 1 0.332255 0.656748 0.5
269 1 0.39406 0.643852 0.5
333 1 0.475649 0.664537 0.5
391 1 0.526916 0.640207 0.5
230 1 0.573181 0.666172 0.5
12 1 0.626927 0.665706 0.5
252 1 0.67363 0.646939 0.5
278 1 0.818162 0.650877 0.5
198 1 0.875829 0.63701 0.5
99 1 0.964817 0.656392 0.5
179 1 0.0510193 0.67588 0.5
317 1 0.107914 0.697764 0.5
299 1 0.155042 0.675677 0.5
323 1 0.244126 0.699552 0.5
390 1 0.288467 0.679927 0.5
270 1 0.374006 0.696006 0.5
345 1 0.425171 0.687747 0.5
350 1 0.515305 0.69913 0.5
271 1 0.662733 0.698003 0.5
255 1 0.715097 0.674212 0.5
273 1 0.768886 0.668789 0.5
201 1 0.81238 0.699429 0.5
335 1 0.861215 0.688269 0.5
213 1 0.916475 0.668027 0.5
220 1 0.999602 0.692906 0.5
381 1 0.0425869 0.72725 0.5
219 1 0.149578 0.727172 0.5
238 1 0.197679 0.711722 0.5
369 1 0.325454 0.710514 0.5
327 1 0.468166 0.721578 0.5
314 1 0.560141 0.723082 0.5
346 1 0.608556 0.710613 0.5
176 1 0.706202 0.732045 0.5
256 1 0.751541 0.713052 0.5
258 1 0.899526 0.718251 0.5
178 1 0.950981 0.705278 0.5
370 1 0.0878666 0.747158 0.5
202 1 0.227859 0.749667 0.5
340 1 0.275917 0.73657 0.5
347 1 0.353797 0.754364 0.5
332 1 0.418582 0.739139 0.5
31 1 0.511959 0.751386 0.5
276 1 0.601839 0.760071 0.5
197 1 0.648792 0.743522 0.5
295 1 0.745135 0.765499 0.5
233 1 0.799123 0.749696 0.5
101 1 0.847224 0.738054 0.5
259 1 0.933295 0.761366 0.5
199 1 0.995311 0.74358 0.5
286 1 0.0338433 0.777666 0.5
324 1 0.12917 0.775222 0.5
304 1 0.182796 0.768418 0.5
325 1 0.26229 0.788716 0.5
305 1 0.309462 0.775448 0.5
365 1 0.393909 0.783903 0.5
294 1 0.456842 0.771133 0.5
10 1 0.50253 0.798137 0.5
334 1 0.54988 0.78533 0.5
257 1 0.642414 0.79553 0.5
313 1 0.68752 0.780587 0.5
121 1 0.831383 0.788204 0.5
235 1 0.883948 0.771084 0.5
298 1 0.979288 0.792714 0.5
288 1 0.016846 0.824014 0.5
303 1 0.0722278 0.812102 0.5
268 1 0.153739 0.82145 0.5
5 1 0.216805 0.806133 0.5
7 1 0.304023 0.823885 0.5
289 1 0.351466 0.810972 0.5
272 1 0.448046 0.820737 0.5
311 1 0.596758 0.807681 0.5
254 1 0.733368 0.822374 0.5
296 1 0.782249 0.80178 0.5
22 1 0.87038 0.823192 0.5
344 1 0.923197 0.809197 0.5
126 1 0.0528213 0.859978 0.5
27 1 0.111051 0.843341 0.5
43 1 0.21087 0.859144 0.5
279 1 0.257674 0.839798 0.5
8 1 0.334471 0.862047 0.5
352 1 0.388527 0.844183 0.5
371 1 0.491125 0.86047 0.5
52 1 0.539102 0.834173 0.5
292 1 0.578432 0.861393 0.5
231 1 0.628448 0.849 0.5
338 1 0.67977 0.838274 0.5
399 1 0.775848 0.859537 0.5
274 1 0.824429 0.83956 0.5
336 1 0.909903 0.860357 0.5
339 1 0.964698 0.843894 0.5
24 1 0.0044954 0.879274 0.5
321 1 0.0955721 0.896459 0.5
385 1 0.151678 0.873592 0.5
6 1 0.243549 0.898065 0.5
28 1 0.288483 0.880843 0.5
366 1 0.374322 0.893025 0.5
9 1 0.428086 0.873808 0.5
374 1 0.53313 0.884271 0.5
293 1 0.658263 0.889669 0.5
36 1 0.718499 0.873869 0.5
1 1 0.803462 0.898392 0.5
297 1 0.851113 0.878191 0.5
280 1 0.955641 0.892189 0.5
42 1 0.0476717 0.909785 0.5
368 1 0.143672 0.923158 0.5
23 1 0.197228 0.906567 0.5
70 1 0.32354 0.91516 0.5
127 1 0.416544 0.925957 0.5
30 1 0.467241 0.906846 0.5
72 1 0.558207 0.928648 0.5
351 1 0.612958 0.903295 0.5
277 1 0.69855 0.920259 0.5
20 1 0.755234 0.907473 0.5
377 1 0.843394 0.930816 0.5
360 1 0.903966 0.90816 0.5
400 1 0.996837 0.926054 0.5
322 1 0.0367919 0.957783 0.5
363 1 0.0862985 0.945186 0.5
84 1 0.1783 0.965452 0.5
307 1 0.226654 0.949925 0.5
105 1 0.274356 0.938949 0.5
106 1 0.315662 0.964203 0.5
389 1 0.363949 0.953379 0.5
92 1 0.457399 0.955598 0.5
90 1 0.507973 0.94041 0.5
291 1 0.600021 0.958801 0.5
355 1 0.651078 0.941699 0.5
114 1 0.738069 0.955608 0.5
376 1 0.792905 0.948253 0.5
362 1 0.888676 0.955865 0.5
316 1 0.942139 0.941013 0.5
4 1 0.0752518 0.99416 0.5
392 1 0.130177 0.972986 0.5
26 1 0.266507 0.987965 0.5
49 1 0.412082 0.976641 0.5
397 1 0.49813 0.989836 0.5
387 1 0.550822 0.977485 0.5
57 1 0.64176 0.990086 0.5
73 1 0.690567 0.97241 0.5
13 1 0.796481 0.997677 0.5
342 1 0.84601 0.980029 0.5
315 1 0.93206 0.98924 0.5
341 1 0.982697 0.975702 0.5
