ITEM: TIMESTEP
0
ITEM: NUMBER OF ATOMS
360
ITEM: BOX BOUNDS pp pp pp
0.0000000000000000e+00 6.6943295008216896e+00
0.0000000000000000e+00 6.6943295008216896e+00
0.0000000000000000e+00 6.6943295008216896e+00
ITEM: ATOMS id type xs ys zs
1 1 0 0 0
2 1 0.111572 0.111572 0
3 1 0.111572 0 0.111572
4 1 0 0.111572 0.111572
5 1 0.223144 0 0
8 1 0.223144 0.111572 0.111572
11 1 0 0.223144 0
12 1 0.111572 0.223144 0.111572
13 1 0.223144 0.223144 0
16 1 0 0 0.223144
17 1 0.111572 0.111572 0.223144
18 1 0.223144 0 0.223144
21 1 0 0.223144 0.223144
22 1 0.223144 0.223144 0.223144
6 1 0.334716 0.111572 0
7 1 0.334716 0 0.111572
9 1 0.446289 0 0
10 1 0.446289 0.111572 0.111572
14 1 0.334716 0.223144 0.111572
15 1 0.446289 0.223144 0
19 1 0.334716 0.111572 0.223144
20 1 0.446289 0 0.223144
23 1 0.446289 0.223144 0.223144
24 1 0.111572 0 0.334716
25 1 0 0.111572 0.334716
27 1 0.223144 0.111572 0.334716
29 1 0.111572 0.223144 0.334716
31 1 0 0 0.446289
32 1 0.111572 0.111572 0.446289
33 1 0.223144 0 0.446289
36 1 0 0.223144 0.446289
37 1 0.223144 0.223144 0.446289
26 1 0.334716 0 0.334716
28 1 0.446289 0.111572 0.334716
30 1 0.334716 0.223144 0.334716
34 1 0.334716 0.111572 0.446289
35 1 0.446289 0 0.446289
38 1 0.446289 0.223144 0.446289
39 1 0.111572 0 0.557861
40 1 0 0.111572 0.557861
42 1 0.223144 0.111572 0.557861
44 1 0.111572 0.223144 0.557861
46 1 0 0 0.669433
47 1 0.111572 0.111572 0.669433
48 1 0.223144 0 0.669433
51 1 0 0.223144 0.669433
52 1 0.223144 0.223144 0.669433
41 1 0.334716 0 0.557861
43 1 0.446289 0.111572 0.557861
45 1 0.334716 0.223144 0.557861
49 1 0.334716 0.111572 0.669433
50 1 0.446289 0 0.669433
53 1 0.446289 0.223144 0.669433
54 1 0.111572 0 0.781005
55 1 0 0.111572 0.781005
57 1 0.223144 0.111572 0.781005
59 1 0.111572 0.223144 0.781005
61 1 0 0 0.892577
62 1 0.111572 0.111572 0.892577
63 1 0.223144 0 0.892577
66 1 0 0.223144 0.892577
67 1 0.223144 0.223144 0.892577
56 1 0.334716 0 0.781005
58 1 0.446289 0.111572 0.781005
60 1 0.334716 0.223144 0.781005
64 1 0.334716 0.111572 0.892577
65 1 0.446289 0 0.892577
68 1 0.446289 0.223144 0.892577
69 1 0.111572 0.334716 0
70 1 0 0.334716 0.111572
72 1 0.223144 0.334716 0.111572
74 1 0 0.446289 0
75 1 0.111572 0.557861 0
76 1 0.111572 0.446289 0.111572
77 1 0 0.557861 0.111572
78 1 0.223144 0.446289 0
81 1 0.223144 0.557861 0.111572
84 1 0.111572 0.334716 0.223144
86 1 0 0.446289 0.223144
87 1 0.111572 0.557861 0.223144
88 1 0.223144 0.446289 0.223144
71 1 0.334716 0.334716 0
73 1 0.446289 0.334716 0.111572
79 1 0.334716 0.557861 0
80 1 0.334716 0.446289 0.111572
82 1 0.446289 0.446289 0
83 1 0.446289 0.557861 0.111572
85 1 0.334716 0.334716 0.223144
89 1 0.334716 0.557861 0.223144
90 1 0.446289 0.446289 0.223144
91 1 0 0.334716 0.334716
92 1 0.223144 0.334716 0.334716
94 1 0.111572 0.446289 0.334716
95 1 0 0.557861 0.334716
97 1 0.223144 0.557861 0.334716
99 1 0.111572 0.334716 0.446289
101 1 0 0.446289 0.446289
102 1 0.111572 0.557861 0.446289
103 1 0.223144 0.446289 0.446289
93 1 0.446289 0.334716 0.334716
96 1 0.334716 0.446289 0.334716
98 1 0.446289 0.557861 0.334716
100 1 0.334716 0.334716 0.446289
104 1 0.334716 0.557861 0.446289
105 1 0.446289 0.446289 0.446289
106 1 0 0.334716 0.557861
107 1 0.223144 0.334716 0.557861
109 1 0.111572 0.446289 0.557861
110 1 0 0.557861 0.557861
112 1 0.223144 0.557861 0.557861
114 1 0.111572 0.334716 0.669433
116 1 0 0.446289 0.669433
117 1 0.111572 0.557861 0.669433
118 1 0.223144 0.446289 0.669433
108 1 0.446289 0.334716 0.557861
111 1 0.334716 0.446289 0.557861
113 1 0.446289 0.557861 0.557861
115 1 0.334716 0.334716 0.669433
119 1 0.334716 0.557861 0.669433
120 1 0.446289 0.446289 0.669433
121 1 0 0.334716 0.781005
122 1 0.223144 0.334716 0.781005
124 1 0.111572 0.446289 0.781005
125 1 0 0.557861 0.781005
127 1 0.223144 0.557861 0.781005
129 1 0.111572 0.334716 0.892577
131 1 0 0.446289 0.892577
132 1 0.111572 0.557861 0.892577
133 1 0.223144 0.446289 0.892577
123 1 0.446289 0.334716 0.781005
126 1 0.334716 0.446289 0.781005
128 1 0.446289 0.557861 0.781005
130 1 0.334716 0.334716 0.892577
134 1 0.334716 0.557861 0.892577
135 1 0.446289 0.446289 0.892577
136 1 0 0.669433 0
137 1 0.111572 0.781005 0
138 1 0.111572 0.669433 0.111572
139 1 0 0.781005 0.111572
140 1 0.223144 0.669433 0
143 1 0.223144 0.781005 0.111572
146 1 0 0.892577 0
147 1 0.111572 0.892577 0.111572
148 1 0.223144 0.892577 0
151 1 0 0.669433 0.223144
152 1 0.111572 0.781005 0.223144
153 1 0.223144 0.669433 0.223144
156 1 0 0.892577 0.223144
157 1 0.223144 0.892577 0.223144
141 1 0.334716 0.781005 0
142 1 0.334716 0.669433 0.111572
144 1 0.446289 0.669433 0
145 1 0.446289 0.781005 0.111572
149 1 0.334716 0.892577 0.111572
150 1 0.446289 0.892577 0
154 1 0.334716 0.781005 0.223144
155 1 0.446289 0.669433 0.223144
158 1 0.446289 0.892577 0.223144
159 1 0.111572 0.669433 0.334716
160 1 0 0.781005 0.334716
162 1 0.223144 0.781005 0.334716
164 1 0.111572 0.892577 0.334716
166 1 0 0.669433 0.446289
167 1 0.111572 0.781005 0.446289
168 1 0.223144 0.669433 0.446289
171 1 0 0.892577 0.446289
172 1 0.223144 0.892577 0.446289
161 1 0.334716 0.669433 0.334716
163 1 0.446289 0.781005 0.334716
165 1 0.334716 0.892577 0.334716
169 1 0.334716 0.781005 0.446289
170 1 0.446289 0.669433 0.446289
173 1 0.446289 0.892577 0.446289
174 1 0.111572 0.669433 0.557861
175 1 0 0.781005 0.557861
177 1 0.223144 0.781005 0.557861
179 1 0.111572 0.892577 0.557861
181 1 0 0.669433 0.669433
182 1 0.111572 0.781005 0.669433
183 1 0.223144 0.669433 0.669433
186 1 0 0.892577 0.669433
187 1 0.223144 0.892577 0.669433
176 1 0.334716 0.669433 0.557861
178 1 0.446289 0.781005 0.557861
180 1 0.334716 0.892577 0.557861
184 1 0.334716 0.781005 0.669433
185 1 0.446289 0.669433 0.669433
188 1 0.446289 0.892577 0.669433
189 1 0.111572 0.669433 0.781005
190 1 0 0.781005 0.781005
192 1 0.223144 0.781005 0.781005
194 1 0.111572 0.892577 0.781005
196 1 0 0.669433 0.892577
197 1 0.111572 0.781005 0.892577
198 1 0.223144 0.669433 0.892577
201 1 0 0.892577 0.892577
202 1 0.223144 0.892577 0.892577
191 1 0.334716 0.669433 0.781005
193 1 0.446289 0.781005 0.781005
195 1 0.334716 0.892577 0.781005
199 1 0.334716 0.781005 0.892577
200 1 0.446289 0.669433 0.892577
203 1 0.446289 0.892577 0.892577
204 1 0.557861 0.111572 0
205 1 0.557861 0 0.111572
206 1 0.669433 0 0
209 1 0.669433 0.111572 0.111572
212 1 0.557861 0.223144 0.111572
213 1 0.669433 0.223144 0
216 1 0.557861 0.111572 0.223144
217 1 0.669433 0 0.223144
220 1 0.669433 0.223144 0.223144
207 1 0.781005 0.111572 0
208 1 0.781005 0 0.111572
210 1 0.892577 0 0
211 1 0.892577 0.111572 0.111572
214 1 0.781005 0.223144 0.111572
215 1 0.892577 0.223144 0
218 1 0.781005 0.111572 0.223144
219 1 0.892577 0 0.223144
221 1 0.892577 0.223144 0.223144
222 1 0.557861 0 0.334716
224 1 0.669433 0.111572 0.334716
226 1 0.557861 0.223144 0.334716
228 1 0.557861 0.111572 0.446289
229 1 0.669433 0 0.446289
232 1 0.669433 0.223144 0.446289
223 1 0.781005 0 0.334716
225 1 0.892577 0.111572 0.334716
227 1 0.781005 0.223144 0.334716
230 1 0.781005 0.111572 0.446289
231 1 0.892577 0 0.446289
233 1 0.892577 0.223144 0.446289
234 1 0.557861 0 0.557861
236 1 0.669433 0.111572 0.557861
238 1 0.557861 0.223144 0.557861
240 1 0.557861 0.111572 0.669433
241 1 0.669433 0 0.669433
244 1 0.669433 0.223144 0.669433
235 1 0.781005 0 0.557861
237 1 0.892577 0.111572 0.557861
239 1 0.781005 0.223144 0.557861
242 1 0.781005 0.111572 0.669433
243 1 0.892577 0 0.669433
245 1 0.892577 0.223144 0.669433
246 1 0.557861 0 0.781005
248 1 0.669433 0.111572 0.781005
250 1 0.557861 0.223144 0.781005
252 1 0.557861 0.111572 0.892577
253 1 0.669433 0 0.892577
256 1 0.669433 0.223144 0.892577
247 1 0.781005 0 0.781005
249 1 0.892577 0.111572 0.781005
251 1 0.781005 0.223144 0.781005
254 1 0.781005 0.111572 0.892577
255 1 0.892577 0 0.892577
257 1 0.892577 0.223144 0.892577
258 1 0.557861 0.334716 0
260 1 0.669433 0.334716 0.111572
262 1 0.557861 0.557861 0
263 1 0.557861 0.446289 0.111572
264 1 0.669433 0.446289 0
267 1 0.669433 0.557861 0.111572
270 1 0.557861 0.334716 0.223144
272 1 0.557861 0.557861 0.223144
273 1 0.669433 0.446289 0.223144
259 1 0.781005 0.334716 0
261 1 0.892577 0.334716 0.111572
265 1 0.781005 0.557861 0
266 1 0.781005 0.446289 0.111572
268 1 0.892577 0.446289 0
269 1 0.892577 0.557861 0.111572
271 1 0.781005 0.334716 0.223144
274 1 0.781005 0.557861 0.223144
275 1 0.892577 0.446289 0.223144
276 1 0.669433 0.334716 0.334716
278 1 0.557861 0.446289 0.334716
280 1 0.669433 0.557861 0.334716
282 1 0.557861 0.334716 0.446289
284 1 0.557861 0.557861 0.446289
285 1 0.669433 0.446289 0.446289
277 1 0.892577 0.334716 0.334716
279 1 0.781005 0.446289 0.334716
281 1 0.892577 0.557861 0.334716
283 1 0.781005 0.334716 0.446289
286 1 0.781005 0.557861 0.446289
287 1 0.892577 0.446289 0.446289
288 1 0.669433 0.334716 0.557861
290 2 0.557861 0.446289 0.557861
292 2 0.669433 0.557861 0.557861
294 2 0.557861 0.334716 0.669433
296 2 0.557861 0.557861 0.669433
297 2 0.669433 0.446289 0.669433
289 2 0.892577 0.334716 0.557861
291 2 0.781005 0.446289 0.557861
293 2 0.892577 0.557861 0.557861
295 2 0.781005 0.334716 0.669433
298 2 0.781005 0.557861 0.669433
299 2 0.892577 0.446289 0.669433
300 2 0.669433 0.334716 0.781005
302 2 0.557861 0.446289 0.781005
304 2 0.669433 0.557861 0.781005
306 2 0.557861 0.334716 0.892577
308 2 0.557861 0.557861 0.892577
309 2 0.669433 0.446289 0.892577
301 2 0.892577 0.334716 0.781005
303 2 0.781005 0.446289 0.781005
305 2 0.892577 0.557861 0.781005
307 2 0.781005 0.334716 0.892577
310 2 0.781005 0.557861 0.892577
311 2 0.892577 0.446289 0.892577
312 2 0.557861 0.781005 0
313 2 0.557861 0.669433 0.111572
314 2 0.669433 0.669433 0
317 2 0.669433 0.781005 0.111572
320 2 0.557861 0.892577 0.111572
321 2 0.669433 0.892577 0
324 2 0.557861 0.781005 0.223144
325 2 0.669433 0.669433 0.223144
328 2 0.669433 0.892577 0.223144
315 2 0.781005 0.781005 0
316 2 0.781005 0.669433 0.111572
318 2 0.892577 0.669433 0
319 2 0.892577 0.781005 0.111572
322 2 0.781005 0.892577 0.111572
323 2 0.892577 0.892577 0
326 2 0.781005 0.781005 0.223144
327 2 0.892577 0.669433 0.223144
329 2 0.892577 0.892577 0.223144
330 2 0.557861 0.669433 0.334716
332 2 0.669433 0.781005 0.334716
334 2 0.557861 0.892577 0.334716
336 2 0.557861 0.781005 0.446289
337 2 0.669433 0.669433 0.446289
340 2 0.669433 0.892577 0.446289
331 2 0.781005 0.669433 0.334716
333 2 0.892577 0.781005 0.334716
335 2 0.781005 0.892577 0.334716
338 2 0.781005 0.781005 0.446289
339 2 0.892577 0.669433 0.446289
341 2 0.892577 0.892577 0.446289
342 2 0.557861 0.669433 0.557861
344 2 0.669433 0.781005 0.557861
346 2 0.557861 0.892577 0.557861
348 2 0.557861 0.781005 0.669433
349 2 0.669433 0.669433 0.669433
352 2 0.669433 0.892577 0.669433
343 2 0.781005 0.669433 0.557861
345 2 0.892577 0.781005 0.557861
347 2 0.781005 0.892577 0.557861
350 2 0.781005 0.781005 0.669433
351 2 0.892577 0.669433 0.669433
353 2 0.892577 0.892577 0.669433
354 2 0.557861 0.669433 0.781005
356 2 0.669433 0.781005 0.781005
358 2 0.557861 0.892577 0.781005
360 2 0.557861 0.781005 0.892577
355 2 0.781005 0.669433 0.781005
357 2 0.892577 0.781005 0.781005
359 2 0.781005 0.892577 0.781005
ITEM: TIMESTEP
10000
ITEM: NUMBER OF ATOMS
360
ITEM: BOX BOUNDS pp pp pp
0.0000000000000000e+00 6.6943295008216896e+00
0.0000000000000000e+00 6.6943295008216896e+00
0.0000000000000000e+00 6.6943295008216896e+00
ITEM: ATOMS id type xs ys zs
179 1 0.0514836 0.0766782 0.144688
188 1 0.24641 0.185162 0.159097
83 1 0.0527545 0.123957 0.0170182
278 1 0.224011 0.191231 0.0137682
150 1 0.179702 0.0845535 0.1126
182 1 0.0596857 0.236595 0.13051
308 2 0.248959 0.0996347 0.24084
340 2 0.376145 0.125674 0.0141283
253 1 0.272789 0.312017 0.0748402
338 2 0.384084 0.0730532 0.191533
49 1 0.43104 0.133472 0.112095
105 1 0.402713 0.2538 0.050271
171 1 0.484055 0.306717 0.184905
223 1 0.493379 0.0832111 0.2443
131 1 0.471856 0.0079143 0.113277
153 1 0.0724082 0.0222956 0.356438
124 1 0.218748 0.302208 0.433452
140 1 0.187346 0.0277526 0.43952
360 2 0.220448 0.12786 0.42291
151 1 0.163712 0.196559 0.36295
174 1 0.108699 0.301322 0.298499
136 1 0.038638 0.215884 0.411464
287 1 0.0951539 0.119889 0.256629
193 1 0.00732356 0.0663105 0.45719
198 1 0.44617 0.0126041 0.343528
42 1 0.294734 0.0803805 0.34314
159 1 0.401525 0.161501 0.35412
108 1 0.277693 0.254298 0.299422
301 2 0.368704 0.211093 0.466823
322 2 0.467064 0.295336 0.307195
226 1 0.232076 0.208804 0.578621
161 1 0.0631725 0.207237 0.592966
176 1 0.123118 0.171555 0.714746
152 1 0.00635155 0.0793242 0.606077
175 1 0.123956 0.0529609 0.695333
8 1 0.22224 0.0200133 0.557975
167 1 0.12164 0.104568 0.547345
343 2 0.205594 0.255732 0.710186
258 1 0.10897 0.331398 0.689901
297 2 0.143366 0.240945 0.510498
132 1 0.372554 0.211363 0.622872
13 1 0.381661 0.0420133 0.622962
246 1 0.283768 0.104204 0.67477
335 2 0.497727 0.0324007 0.682356
240 1 0.369552 0.12013 0.528249
20 1 0.0132074 0.177723 0.881345
196 1 0.244397 0.100579 0.839677
28 1 0.114807 0.0830048 0.830924
15 1 0.176539 0.288041 0.878324
244 1 0.164792 0.0515695 0.966947
332 2 0.0324349 0.0679499 0.901536
256 1 0.0180808 0.277172 0.987789
18 1 0.0790484 0.328027 0.809934
145 1 0.314751 0.227633 0.923698
183 1 0.478256 0.156324 0.949085
211 1 0.337895 0.0485374 0.928679
103 1 0.380904 0.143852 0.850392
68 1 0.293694 0.235858 0.775915
292 2 0.483123 0.0400527 0.959105
289 2 0.434448 0.240103 0.895049
274 1 0.373011 0.0247283 0.766777
57 1 0.437935 0.178188 0.754873
217 1 0.16355 0.334996 0.0161602
86 1 0.0665488 0.649646 0.0632584
315 2 0.049993 0.548273 0.0554834
76 1 0.0688715 0.381863 0.110743
290 2 0.229207 0.572276 0.185509
261 1 0.21737 0.379192 0.220297
80 1 0.17006 0.576504 0.0911725
95 1 0.389448 0.532854 0.228086
250 1 0.388481 0.647821 0.171764
298 2 0.407149 0.542774 0.0777789
220 1 0.277399 0.478965 0.147314
205 1 0.395943 0.416998 0.0890795
172 1 0.292798 0.574688 0.00961638
72 1 0.401296 0.657109 0.0426141
349 2 0.329675 0.377332 0.191925
262 1 0.122796 0.356652 0.481564
311 2 0.152949 0.503444 0.48303
260 1 0.244041 0.570052 0.430304
221 1 0.232576 0.52125 0.278142
128 1 0.0644907 0.562077 0.379938
166 1 0.0394466 0.478118 0.471412
218 1 0.0301649 0.385156 0.381733
149 1 0.179591 0.411797 0.361838
25 1 0.085755 0.438346 0.251795
320 2 0.122205 0.652108 0.433183
237 1 0.138226 0.630947 0.302094
101 1 0.000698707 0.61218 0.492737
283 1 0.361697 0.594738 0.354988
351 2 0.406487 0.450895 0.326251
356 2 0.302742 0.431931 0.48134
325 2 0.435767 0.415189 0.486162
24 1 0.36496 0.359823 0.373033
88 1 0.385605 0.504756 0.446579
302 2 0.44134 0.654242 0.28237
93 1 0.495417 0.434158 0.264674
79 1 0.490744 0.51052 0.388434
26 1 0.111719 0.521239 0.577673
194 1 0.249941 0.365279 0.618762
110 1 0.125637 0.588033 0.697762
272 1 0.118784 0.649498 0.543278
312 2 0.0297065 0.635694 0.589294
2 1 0.223906 0.498702 0.632138
210 1 0.381675 0.51844 0.604521
100 1 0.286384 0.601193 0.739183
81 1 0.44428 0.627585 0.510859
148 1 0.369456 0.336388 0.563514
60 1 0.180367 0.429076 0.883696
326 2 0.112698 0.633363 0.941356
104 1 0.0749203 0.505053 0.795694
285 1 0.226386 0.434113 0.755406
291 2 0.0431114 0.406602 0.858333
9 1 0.0874275 0.50628 0.937031
286 1 0.163211 0.583637 0.829845
352 2 0.190366 0.467151 0.999071
22 1 0.338433 0.518057 0.847363
126 1 0.30644 0.340285 0.834485
265 1 0.388944 0.662319 0.771153
323 2 0.310477 0.632276 0.893275
359 2 0.399947 0.368785 0.974442
231 1 0.284391 0.386177 0.958968
33 1 0.459872 0.375067 0.875646
324 2 0.440311 0.556301 0.821113
45 1 0.375981 0.436111 0.755853
321 2 0.220923 0.743465 0.0628705
111 1 0.136638 0.72017 0.146907
213 1 0.0641733 0.874223 0.133513
201 1 0.0248143 0.990866 0.228717
69 1 0.211328 0.852917 0.094463
178 1 0.0123282 0.978157 0.0488746
27 1 0.17261 0.828909 0.220588
209 1 0.224944 0.985213 0.184527
219 1 0.446724 0.889773 0.0312246
227 1 0.346003 0.811542 0.125069
222 1 0.285347 0.966022 0.0287077
71 1 0.256239 0.667201 0.142278
138 1 0.24164 0.713239 0.416571
160 1 0.0234294 0.860482 0.290345
177 1 0.138398 0.888008 0.399569
44 1 0.169428 0.95343 0.290274
212 1 0.0686199 0.743154 0.261802
7 1 0.015248 0.925425 0.413426
208 1 0.0152299 0.747976 0.463453
310 2 0.0970079 0.812091 0.495519
21 1 0.384537 0.712644 0.389059
248 1 0.455669 0.839214 0.380211
181 1 0.270532 0.893502 0.464533
358 2 0.331075 0.757143 0.304524
109 1 0.388365 0.999695 0.455839
236 1 0.423297 0.899912 0.253029
98 1 0.299405 0.886021 0.252712
137 1 0.270615 0.672763 0.286782
19 1 0.2187 0.747663 0.541567
1 1 0.086264 0.844455 0.603726
305 2 0.220442 0.97319 0.705999
162 1 0.0477568 0.947705 0.740535
239 1 0.0608876 0.972029 0.556257
106 1 0.214529 0.897604 0.60462
189 1 0.214395 0.702518 0.676905
17 1 0.363154 0.722035 0.604537
357 2 0.322786 0.765602 0.725549
334 2 0.254982 0.852065 0.701474
63 1 0.472845 0.835752 0.662418
233 1 0.440236 0.926854 0.560186
202 1 0.225945 0.691449 0.95508
284 1 0.107866 0.795713 0.760354
58 1 0.0945345 0.73259 0.967619
10 1 0.180259 0.904033 0.792725
309 2 0.0651473 0.738814 0.84465
89 1 0.196622 0.807258 0.901147
168 1 0.054707 0.896595 0.861554
197 1 0.103751 0.89847 0.988219
65 1 0.243788 0.955998 0.915396
94 1 0.30639 0.82136 0.989941
295 2 0.382066 0.767457 0.817652
235 1 0.265361 0.732743 0.833119
133 1 0.352091 0.866776 0.76978
116 1 0.374704 0.9312 0.935368
134 1 0.481081 0.902359 0.811591
288 1 0.417958 0.758837 0.962455
245 1 0.74523 0.315419 0.0889731
40 1 0.540368 0.182202 0.06612
75 1 0.51518 0.31188 0.0247819
346 2 0.686319 0.288204 0.186859
129 1 0.715456 0.077805 0.0903548
54 1 0.660408 0.172101 0.16084
331 2 0.781872 0.197838 0.114622
303 2 0.817319 0.0477516 0.0340985
345 2 0.921759 0.0886838 0.00893273
215 1 0.908024 0.139235 0.108195
316 2 0.840498 0.301519 0.248154
130 1 0.804017 0.177207 0.0172009
328 2 0.889526 0.0643109 0.219717
31 1 0.525816 0.214081 0.420252
333 2 0.617027 0.267146 0.489886
73 1 0.547224 0.00192039 0.473827
330 2 0.613639 0.244387 0.338326
127 1 0.643143 0.151273 0.305328
269 1 0.690378 0.317298 0.358424
319 2 0.702022 0.319485 0.46827
342 2 0.557841 0.0800127 0.342648
112 1 0.649816 0.0922411 0.444255
263 1 0.954537 0.0859658 0.345709
118 1 0.813788 0.088727 0.456092
241 1 0.899872 0.32936 0.353962
230 1 0.77143 0.213914 0.395566
84 1 0.785549 0.0911168 0.290491
336 2 0.904348 0.196092 0.40996
173 1 0.963955 0.230946 0.270787
43 1 0.750124 0.231273 0.260987
247 1 0.510172 0.203085 0.569999
224 1 0.504064 0.299783 0.74466
11 1 0.678422 0.110346 0.708024
234 1 0.554094 0.128632 0.681401
70 1 0.668062 0.240873 0.574228
229 1 0.628931 0.0416453 0.567479
207 1 0.630748 0.236895 0.719278
87 1 0.555769 0.317112 0.627522
38 1 0.815919 0.130742 0.744626
165 1 0.884704 0.214788 0.581962
190 1 0.949527 0.210994 0.741411
294 2 0.76483 0.150604 0.598384
123 1 0.971578 0.301111 0.64072
74 1 0.782407 0.240865 0.687482
48 1 0.971055 0.297287 0.526435
275 1 0.713197 0.00245842 0.807139
46 1 0.691714 0.155623 0.841092
41 1 0.695097 0.282448 0.963401
243 1 0.579749 0.220861 0.877843
96 1 0.66472 0.115656 0.964157
306 2 0.597206 0.0868602 0.889156
268 1 0.95759 0.0721187 0.779661
304 2 0.92807 0.204735 0.954666
252 1 0.759052 0.0248904 0.949413
277 1 0.958211 0.299619 0.833589
4 1 0.851239 0.11526 0.865332
276 1 0.891565 0.31861 0.95611
169 1 0.843217 0.232212 0.815867
157 1 0.608192 0.344548 0.241854
186 1 0.530479 0.438641 0.125628
267 1 0.50499 0.565343 0.143847
50 1 0.703609 0.510127 0.174758
66 1 0.648869 0.43669 0.0232068
53 1 0.690585 0.654824 0.12361
64 1 0.619131 0.336652 0.102683
251 1 0.958748 0.432761 0.0137616
185 1 0.968628 0.360238 0.2358
344 2 0.779799 0.58973 0.206801
114 1 0.973747 0.660052 0.221998
203 1 0.839497 0.42742 0.0693171
317 2 0.80285 0.651093 0.0619423
170 1 0.988612 0.54038 0.188258
266 1 0.936625 0.643938 0.0663435
270 1 0.920354 0.337633 0.131508
36 1 0.571541 0.357476 0.392664
3 1 0.53363 0.640515 0.39089
5 1 0.657789 0.547742 0.422644
147 1 0.749776 0.40092 0.25685
143 1 0.609635 0.48872 0.291369
135 1 0.771033 0.518588 0.305583
187 1 0.798586 0.47739 0.434326
273 1 0.77872 0.600565 0.400027
14 1 0.894009 0.553219 0.472686
12 1 0.902508 0.475046 0.292984
228 1 0.905946 0.42513 0.445784
37 1 0.885469 0.635638 0.329087
353 2 0.731063 0.528635 0.547083
350 2 0.673886 0.540984 0.749643
204 1 0.567647 0.656392 0.53089
23 1 0.535697 0.476977 0.552068
282 1 0.638659 0.632857 0.67987
259 1 0.718238 0.453683 0.625543
62 1 0.508379 0.443981 0.683981
92 1 0.526889 0.583616 0.681154
119 1 0.629698 0.416923 0.740575
264 1 0.647164 0.403874 0.510589
318 2 0.753346 0.591938 0.649641
327 2 0.988882 0.451715 0.698004
78 1 0.832851 0.337759 0.611536
99 1 0.954118 0.418909 0.550203
82 1 0.884156 0.363536 0.736867
122 1 0.99678 0.57618 0.676533
155 1 0.860555 0.647996 0.624444
32 1 0.859853 0.528853 0.690128
154 1 0.666813 0.505515 0.872529
254 1 0.602419 0.389667 0.917601
200 1 0.737176 0.598134 0.800784
47 1 0.501888 0.44975 0.989577
29 1 0.609645 0.601505 0.98894
214 1 0.74805 0.349663 0.782739
52 1 0.520979 0.48297 0.85419
279 1 0.725324 0.531151 0.982998
249 1 0.915135 0.434414 0.855867
16 1 0.787967 0.417692 0.933421
146 1 0.857636 0.563182 0.858913
242 1 0.945561 0.646564 0.786775
117 1 0.75114 0.652909 0.930083
139 1 0.897826 0.54723 0.974251
34 1 0.995826 0.618246 0.898284
280 1 0.577167 0.696778 0.228794
347 2 0.747689 0.97388 0.096004
313 2 0.745309 0.861604 0.148693
195 1 0.641407 0.966901 0.161831
121 1 0.664923 0.787727 0.172997
51 1 0.594347 0.828901 0.0576997
90 1 0.51321 0.833442 0.179708
115 1 0.523924 0.690754 0.0780072
77 1 0.684289 0.931204 0.00552634
59 1 0.849996 0.848769 0.16993
337 2 0.876924 0.685616 0.141398
156 1 0.797623 0.987667 0.197477
163 1 0.771026 0.767127 0.0952117
85 1 0.823435 0.877748 0.0229984
199 1 0.951333 0.807027 0.0815096
120 1 0.562601 0.93262 0.280206
61 1 0.617839 0.776275 0.433968
354 2 0.534836 0.940818 0.382355
142 1 0.70432 0.686691 0.310938
348 2 0.661371 0.992035 0.324544
293 2 0.649542 0.808356 0.310953
184 1 0.641537 0.887338 0.478366
97 1 0.676463 0.673049 0.451844
329 2 0.742392 0.821553 0.251452
296 2 0.878509 0.951921 0.365435
35 1 0.899697 0.786485 0.303583
180 1 0.821562 0.879183 0.463474
56 1 0.768601 0.904029 0.350135
281 1 0.811167 0.718715 0.428086
6 1 0.700251 0.79345 0.630407
158 1 0.734043 0.964838 0.532855
141 1 0.60794 0.866305 0.749104
91 1 0.542448 0.713005 0.714071
314 2 0.684209 0.674919 0.579322
299 2 0.695513 0.750391 0.513048
192 1 0.517878 0.812987 0.501982
238 1 0.606597 0.91161 0.609304
300 2 0.514228 0.6955 0.605709
30 1 0.785931 0.896346 0.667184
102 1 0.914284 0.933442 0.667741
255 1 0.90303 0.803832 0.654679
232 1 0.878022 0.748708 0.540974
355 2 0.858002 0.88717 0.576719
67 1 0.792968 0.725334 0.713166
55 1 0.990104 0.710324 0.66636
144 1 0.92106 0.998666 0.536241
39 1 0.66156 0.71516 0.783732
164 1 0.544704 0.933026 0.913055
191 1 0.531682 0.708503 0.936385
107 1 0.634383 0.784885 0.909164
307 2 0.690824 0.899068 0.865523
125 1 0.586738 0.99562 0.773048
257 1 0.893023 0.825158 0.800437
271 1 0.791578 0.878706 0.870729
341 2 0.942177 0.741809 0.971608
225 1 0.912283 0.944827 0.910178
206 1 0.750153 0.775487 0.969284
113 1 0.901243 0.821764 0.922838
339 2 0.785203 0.849702 0.77092
216 1 0.848654 0.980047 0.75702
