LAMMPS (15 Sep 2022)
OMP_NUM_THREADS environment is not set. Defaulting to 1 thread. (src/comm.cpp:98)
  using 1 OpenMP thread(s) per MPI task
Lattice spacing in x,y,z = 1.7099759 1.7099759 1.7099759
Created orthogonal box = (0 0 0) to (13.679808 13.679808 13.679808)
LAMMPS (15 Sep 2022)
OMP_NUM_THREADS environment is not set. Defaulting to 1 thread. (src/comm.cpp:98)
  using 1 OpenMP thread(s) per MPI task
Lattice spacing in x,y,z = 1.7099759 1.7099759 1.7099759
Created orthogonal box = (0 0 0) to (13.679808 13.679808 13.679808)
  1 by 2 by 2 MPI processor grid
Created 2048 atoms
  using lattice units in orthogonal box = (0 0 0) to (13.679808 13.679808 13.679808)
  create_atoms CPU = 0.218 seconds
Generated 0 of 0 mixed pair_coeff terms from geometric mixing rule
Neighbor list info ...
  update: every = 1 steps, delay = 0 steps, check = yes
  max neighbors/atom: 2000, page size: 100000
  master list distance cutoff = 1.3
  ghost atom cutoff = 1.3
  binsize = 0.65, bins = 22 22 22
  1 neighbor lists, perpetual/occasional/extra = 1 0 0
  (1) pair lj/cut, perpetual
      attributes: half, newton on
      pair build: half/bin/atomonly/newton
      stencil: half/bin/3d
      bin: standard
Setting up Verlet run ...
  Unit style    : lj
  Current step  : 0
  Time step     : 0.01
  1 by 2 by 2 MPI processor grid
Per MPI rank memory allocation (min/avg/max) = 3.108 | 3.108 | 3.108 Mbytes
   Step          Temp          E_pair         E_mol          TotEng         Press     
LAMMPS (15 Sep 2022)
OMP_NUM_THREADS environment is not set. Defaulting to 1 thread. (src/comm.cpp:98)
  using 1 OpenMP thread(s) per MPI task
Lattice spacing in x,y,z = 1.7099759 1.7099759 1.7099759
Created orthogonal box = (0 0 0) to (13.679808 13.679808 13.679808)
LAMMPS (15 Sep 2022)
OMP_NUM_THREADS environment is not set. Defaulting to 1 thread. (src/comm.cpp:98)
  using 1 OpenMP thread(s) per MPI task
Lattice spacing in x,y,z = 1.7099759 1.7099759 1.7099759
Created orthogonal box = (0 0 0) to (13.679808 13.679808 13.679808)
         0   3              0              0              4.4978027      2.3988281    
Created 2048 atoms
  using lattice units in orthogonal box = (0 0 0) to (13.679808 13.679808 13.679808)
  create_atoms CPU = 0.274 seconds
  1 by 2 by 2 MPI processor grid
  1 by 2 by 2 MPI processor grid
Generated 0 of 0 mixed pair_coeff terms from geometric mixing rule
Neighbor list info ...
  update: every = 1 steps, delay = 0 steps, check = yes
  max neighbors/atom: 2000, page size: 100000
  master list distance cutoff = 1.3
  ghost atom cutoff = 1.3
  binsize = 0.65, bins = 22 22 22
  1 neighbor lists, perpetual/occasional/extra = 1 0 0
  (1) pair lj/cut, perpetual
      attributes: half, newton on
      pair build: half/bin/atomonly/newton
      stencil: half/bin/3d
      bin: standard
Setting up Verlet run ...
  Unit style    : lj
  Current step  : 0
  Time step     : 0.01
Created 2048 atoms
  using lattice units in orthogonal box = (0 0 0) to (13.679808 13.679808 13.679808)
  create_atoms CPU = 0.264 seconds
Created 2048 atoms
  using lattice units in orthogonal box = (0 0 0) to (13.679808 13.679808 13.679808)
  create_atoms CPU = 0.308 seconds
Generated 0 of 0 mixed pair_coeff terms from geometric mixing rule
Per MPI rank memory allocation (min/avg/max) = 3.108 | 3.108 | 3.108 Mbytes
   Step          Temp          E_pair         E_mol          TotEng         Press     
Neighbor list info ...
  update: every = 1 steps, delay = 0 steps, check = yes
  max neighbors/atom: 2000, page size: 100000
  master list distance cutoff = 1.3
  ghost atom cutoff = 1.3
  binsize = 0.65, bins = 22 22 22
  1 neighbor lists, perpetual/occasional/extra = 1 0 0
  (1) pair lj/cut, perpetual
      attributes: half, newton on
      pair build: half/bin/atomonly/newton
      stencil: half/bin/3d
      bin: standard
Setting up Verlet run ...
  Unit style    : lj
  Current step  : 0
  Time step     : 0.01
         0   3              0              0              4.4978027      2.3988281    
Generated 0 of 0 mixed pair_coeff terms from geometric mixing rule
Neighbor list info ...
  update: every = 1 steps, delay = 0 steps, check = yes
  max neighbors/atom: 2000, page size: 100000
  master list distance cutoff = 1.3
  ghost atom cutoff = 1.3
  binsize = 0.65, bins = 22 22 22
  1 neighbor lists, perpetual/occasional/extra = 1 0 0
  (1) pair lj/cut, perpetual
      attributes: half, newton on
      pair build: half/bin/atomonly/newton
      stencil: half/bin/3d
      bin: standard
Setting up Verlet run ...
  Unit style    : lj
  Current step  : 0
  Time step     : 0.01
Per MPI rank memory allocation (min/avg/max) = 3.108 | 3.108 | 3.108 Mbytes
   Step          Temp          E_pair         E_mol          TotEng         Press     
Per MPI rank memory allocation (min/avg/max) = 3.108 | 3.108 | 3.108 Mbytes
   Step          Temp          E_pair         E_mol          TotEng         Press     
         0   3              0              0              4.4978027      2.3988281    
         0   3              0              0              4.4978027      2.3988281    
       500   3.0180154      0.97223289     0              5.4970455      12.157516    
       500   3.0180154      0.97223289     0              5.4970455      12.157516    
       500   3.0180154      0.97223289     0              5.4970455      12.157516    
      1000   3.0552689      0.90726207     0              5.4879277      11.813468    
      1500   2.9415347      0.97338132     0              5.3835289      12.233588    
       500   3.0180154      0.97223289     0              5.4970455      12.157516    
      1000   3.0552689      0.90726207     0              5.4879277      11.813468    
      1000   3.0552689      0.90726207     0              5.4879277      11.813468    
      1000   3.0552689      0.90726207     0              5.4879277      11.813468    
      1500   2.9415347      0.97338132     0              5.3835289      12.233588    
      1500   2.9415347      0.97338132     0              5.3835289      12.233588    
      2000   2.9281507      0.95337236     0              5.3434538      12.173174    
      1500   2.9415347      0.97338132     0              5.3835289      12.233588    
      2000   2.9281507      0.95337236     0              5.3434538      12.173174    
      2000   2.9281507      0.95337236     0              5.3434538      12.173174    
      2500   3.0158827      0.95267591     0              5.474291       12.092647    
      2500   3.0158827      0.95267591     0              5.474291       12.092647    
      2000   2.9281507      0.95337236     0              5.3434538      12.173174    
      2500   3.0158827      0.95267591     0              5.474291       12.092647    
      2500   3.0158827      0.95267591     0              5.474291       12.092647    
      3000   3.0365781      0.96933616     0              5.5219793      12.335064    
      3000   3.0365781      0.96933616     0              5.5219793      12.335064    
      3000   3.0365781      0.96933616     0              5.5219793      12.335064    
      3500   3.0335577      0.95418667     0              5.5023013      12.103985    
      3500   3.0335577      0.95418667     0              5.5023013      12.103985    
      3000   3.0365781      0.96933616     0              5.5219793      12.335064    
      3500   3.0335577      0.95418667     0              5.5023013      12.103985    
      4000   3.1174225      0.9211036      0              5.5949541      12.071313    
      4000   3.1174225      0.9211036      0              5.5949541      12.071313    
      4500   3.0561496      0.99904673     0              5.5810327      12.533125    
      3500   3.0335577      0.95418667     0              5.5023013      12.103985    
      4000   3.1174225      0.9211036      0              5.5949541      12.071313    
      4000   3.1174225      0.9211036      0              5.5949541      12.071313    
      5000   3.1120589      1.0107376      0              5.6765466      12.701912    
      4500   3.0561496      0.99904673     0              5.5810327      12.533125    
      5500   3.0036657      0.94265703     0              5.4459556      11.981209    
      4500   3.0561496      0.99904673     0              5.5810327      12.533125    
      5000   3.1120589      1.0107376      0              5.6765466      12.701912    
      4500   3.0561496      0.99904673     0              5.5810327      12.533125    
      6000   2.9889784      0.99501003     0              5.4762884      12.428836    
      5000   3.1120589      1.0107376      0              5.6765466      12.701912    
      5500   3.0036657      0.94265703     0              5.4459556      11.981209    
      6000   2.9889784      0.99501003     0              5.4762884      12.428836    
      5500   3.0036657      0.94265703     0              5.4459556      11.981209    
      5000   3.1120589      1.0107376      0              5.6765466      12.701912    
      5500   3.0036657      0.94265703     0              5.4459556      11.981209    
      6000   2.9889784      0.99501003     0              5.4762884      12.428836    
      6500   3.0210388      0.98779242     0              5.517138       12.470734    
      6500   3.0210388      0.98779242     0              5.517138       12.470734    
      6500   3.0210388      0.98779242     0              5.517138       12.470734    
      7000   2.9443692      0.94463817     0              5.3590355      12.052693    
      7500   3.0179564      0.93171042     0              5.4564345      12.097827    
      8000   2.9673992      0.94615646     0              5.3950819      12.033183    
      8500   2.9555642      1.0208191      0              5.4520007      12.634049    
      6000   2.9889784      0.99501003     0              5.4762884      12.428836    
      6500   3.0210388      0.98779242     0              5.517138       12.470734    
      7000   2.9443692      0.94463817     0              5.3590355      12.052693    
      7000   2.9443692      0.94463817     0              5.3590355      12.052693    
      7000   2.9443692      0.94463817     0              5.3590355      12.052693    
      9000   2.9826559      0.96426059     0              5.4360598      12.265244    
      7500   3.0179564      0.93171042     0              5.4564345      12.097827    
      8000   2.9673992      0.94615646     0              5.3950819      12.033183    
      8500   2.9555642      1.0208191      0              5.4520007      12.634049    
      9000   2.9826559      0.96426059     0              5.4360598      12.265244    
      7500   3.0179564      0.93171042     0              5.4564345      12.097827    
      9500   2.9731396      0.99438272     0              5.4519145      12.495413    
      9500   2.9731396      0.99438272     0              5.4519145      12.495413    
      7500   3.0179564      0.93171042     0              5.4564345      12.097827    
      8000   2.9673992      0.94615646     0              5.3950819      12.033183    
      8500   2.9555642      1.0208191      0              5.4520007      12.634049    
     10000   2.9916434      0.98660674     0              5.4718807      12.287884    
      8000   2.9673992      0.94615646     0              5.3950819      12.033183    
     10500   3.0389422      0.97502905     0              5.5312166      12.29518     
      9000   2.9826559      0.96426059     0              5.4360598      12.265244    
     10000   2.9916434      0.98660674     0              5.4718807      12.287884    
      8500   2.9555642      1.0208191      0              5.4520007      12.634049    
      9500   2.9731396      0.99438272     0              5.4519145      12.495413    
      9000   2.9826559      0.96426059     0              5.4360598      12.265244    
     10500   3.0389422      0.97502905     0              5.5312166      12.29518     
     11000   3.0345421      0.94803525     0              5.4976259      12.152328    
     11000   3.0345421      0.94803525     0              5.4976259      12.152328    
     10000   2.9916434      0.98660674     0              5.4718807      12.287884    
     11500   3.0469206      0.98167786     0              5.5498271      12.428329    
     10500   3.0389422      0.97502905     0              5.5312166      12.29518     
     11500   3.0469206      0.98167786     0              5.5498271      12.428329    
      9500   2.9731396      0.99438272     0              5.4519145      12.495413    
     12000   3.028784       1.0288753      0              5.569833       12.763257    
     11000   3.0345421      0.94803525     0              5.4976259      12.152328    
     11500   3.0469206      0.98167786     0              5.5498271      12.428329    
     12500   3.120455       0.96802779     0              5.6464248      12.32578     
     13000   3.025581       1.0090706      0              5.5452261      12.596667    
     13500   3.05956        0.98531101     0              5.5724101      12.48025     
     12000   3.028784       1.0288753      0              5.569833       12.763257    
     12500   3.120455       0.96802779     0              5.6464248      12.32578     
     14000   3.0716793      0.98454779     0              5.589817       12.32838     
     10000   2.9916434      0.98660674     0              5.4718807      12.287884    
     12000   3.028784       1.0288753      0              5.569833       12.763257    
     14500   3.0064572      0.9446704      0              5.4521542      12.13505     
     13000   3.025581       1.0090706      0              5.5452261      12.596667    
     15000   3.0175165      0.94317706     0              5.4672416      11.941072    
     10500   3.0389422      0.97502905     0              5.5312166      12.29518     
     15500   2.9212601      0.96069643     0              5.340447       12.196502    
     12500   3.120455       0.96802779     0              5.6464248      12.32578     
     13500   3.05956        0.98531101     0              5.5724101      12.48025     
     13000   3.025581       1.0090706      0              5.5452261      12.596667    
     11000   3.0345421      0.94803525     0              5.4976259      12.152328    
     14000   3.0716793      0.98454779     0              5.589817       12.32838     
     11500   3.0469206      0.98167786     0              5.5498271      12.428329    
     16000   2.9697236      0.98996268     0              5.442373       12.397944    
     14500   3.0064572      0.9446704      0              5.4521542      12.13505     
     15000   3.0175165      0.94317706     0              5.4672416      11.941072    
     15500   2.9212601      0.96069643     0              5.340447       12.196502    
     13500   3.05956        0.98531101     0              5.5724101      12.48025     
     12000   3.028784       1.0288753      0              5.569833       12.763257    
     16500   3.0071242      0.9140952      0              5.422579       11.916817    
     17000   2.9673096      0.98503585     0              5.4338269      12.415456    
     14000   3.0716793      0.98454779     0              5.589817       12.32838     
     14500   3.0064572      0.9446704      0              5.4521542      12.13505     
     12500   3.120455       0.96802779     0              5.6464248      12.32578     
     17500   2.9913143      0.95458094     0              5.4393615      12.180193    
     15000   3.0175165      0.94317706     0              5.4672416      11.941072    
     13000   3.025581       1.0090706      0              5.5452261      12.596667    
     15500   2.9212601      0.96069643     0              5.340447       12.196502    
     16000   2.9697236      0.98996268     0              5.442373       12.397944    
     16000   2.9697236      0.98996268     0              5.442373       12.397944    
     16500   3.0071242      0.9140952      0              5.422579       11.916817    
     13500   3.05956        0.98531101     0              5.5724101      12.48025     
     17000   2.9673096      0.98503585     0              5.4338269      12.415456    
     16500   3.0071242      0.9140952      0              5.422579       11.916817    
     18000   2.9118025      0.96695475     0              5.3325258      12.139602    
     17500   2.9913143      0.95458094     0              5.4393615      12.180193    
     18000   2.9118025      0.96695475     0              5.3325258      12.139602    
     17000   2.9673096      0.98503585     0              5.4338269      12.415456    
     14000   3.0716793      0.98454779     0              5.589817       12.32838     
     18500   2.9697421      0.98850321     0              5.4409412      12.155497    
     18500   2.9697421      0.98850321     0              5.4409412      12.155497    
     19000   2.9581989      0.99733127     0              5.4324629      12.363748    
     17500   2.9913143      0.95458094     0              5.4393615      12.180193    
     19000   2.9581989      0.99733127     0              5.4324629      12.363748    
     19500   3.0135977      0.95122302     0              5.4694124      12.15609     
     20000   2.9197999      0.96750761     0              5.345069       12.170823    
     19500   3.0135977      0.95122302     0              5.4694124      12.15609     
     18000   2.9118025      0.96695475     0              5.3325258      12.139602    
     18500   2.9697421      0.98850321     0              5.4409412      12.155497    
     19000   2.9581989      0.99733127     0              5.4324629      12.363748    
     14500   3.0064572      0.9446704      0              5.4521542      12.13505     
     20500   2.9871793      0.99323596     0              5.4718171      12.472659    
     15000   3.0175165      0.94317706     0              5.4672416      11.941072    
     19500   3.0135977      0.95122302     0              5.4694124      12.15609     
     15500   2.9212601      0.96069643     0              5.340447       12.196502    
     20000   2.9197999      0.96750761     0              5.345069       12.170823    
     20000   2.9197999      0.96750761     0              5.345069       12.170823    
     20500   2.9871793      0.99323596     0              5.4718171      12.472659    
     21000   2.9361102      1.0341293      0              5.4361441      12.639177    
     20500   2.9871793      0.99323596     0              5.4718171      12.472659    
     21000   2.9361102      1.0341293      0              5.4361441      12.639177    
     16000   2.9697236      0.98996268     0              5.442373       12.397944    
     21000   2.9361102      1.0341293      0              5.4361441      12.639177    
     16500   3.0071242      0.9140952      0              5.422579       11.916817    
     21500   3.0331117      0.94480431     0              5.4922504      12.189267    
     21500   3.0331117      0.94480431     0              5.4922504      12.189267    
     22000   3.0145732      0.98937458     0              5.5090264      12.50577     
     21500   3.0331117      0.94480431     0              5.4922504      12.189267    
     22500   3.0880577      0.90606612     0              5.5358909      11.81806     
     22000   3.0145732      0.98937458     0              5.5090264      12.50577     
     22500   3.0880577      0.90606612     0              5.5358909      11.81806     
     23000   3.1089635      0.88654107     0              5.5477092      11.81323     
     17000   2.9673096      0.98503585     0              5.4338269      12.415456    
     23000   3.1089635      0.88654107     0              5.5477092      11.81323     
     23500   3.0579182      0.96096693     0              5.5456046      12.261771    
     23500   3.0579182      0.96096693     0              5.5456046      12.261771    
     22000   3.0145732      0.98937458     0              5.5090264      12.50577     
     24000   3.1234211      1.0107614      0              5.6936054      12.596243    
     17500   2.9913143      0.95458094     0              5.4393615      12.180193    
     22500   3.0880577      0.90606612     0              5.5358909      11.81806     
     24500   3.0560372      0.99373551     0              5.575553       12.588249    
     25000   3.0734678      0.96497049     0              5.5729212      12.136785    
     24000   3.1234211      1.0107614      0              5.6936054      12.596243    
     23000   3.1089635      0.88654107     0              5.5477092      11.81323     
     23500   3.0579182      0.96096693     0              5.5456046      12.261771    
     24000   3.1234211      1.0107614      0              5.6936054      12.596243    
     18000   2.9118025      0.96695475     0              5.3325258      12.139602    
     25500   3.0452511      1.0113509      0              5.5769971      12.620386    
     18500   2.9697421      0.98850321     0              5.4409412      12.155497    
     24500   3.0560372      0.99373551     0              5.575553       12.588249    
     25000   3.0734678      0.96497049     0              5.5729212      12.136785    
     25500   3.0452511      1.0113509      0              5.5769971      12.620386    
     19000   2.9581989      0.99733127     0              5.4324629      12.363748    
     26000   3.0287319      0.91047229     0              5.4513518      11.753517    
     26500   2.991724       0.99319977     0              5.4785946      12.512497    
     27000   3.0590915      0.99934638     0              5.5857431      12.553145    
     27500   3.0453641      0.94234342     0              5.5081591      11.905807    
     26000   3.0287319      0.91047229     0              5.4513518      11.753517    
     19500   3.0135977      0.95122302     0              5.4694124      12.15609     
     24500   3.0560372      0.99373551     0              5.575553       12.588249    
     25000   3.0734678      0.96497049     0              5.5729212      12.136785    
     28000   3.0511617      0.99754909     0              5.5720569      12.564704    
     20000   2.9197999      0.96750761     0              5.345069       12.170823    
     20500   2.9871793      0.99323596     0              5.4718171      12.472659    
     28500   2.9130123      0.94568027     0              5.3130652      12.158052    
     29000   3.0102884      0.95486997     0              5.4680978      12.234012    
     21000   2.9361102      1.0341293      0              5.4361441      12.639177    
     29500   3.0842102      0.92563771     0              5.5496941      12.165909    
     26500   2.991724       0.99319977     0              5.4785946      12.512497    
     25500   3.0452511      1.0113509      0              5.5769971      12.620386    
     26000   3.0287319      0.91047229     0              5.4513518      11.753517    
     21500   3.0331117      0.94480431     0              5.4922504      12.189267    
     27000   3.0590915      0.99934638     0              5.5857431      12.553145    
     26500   2.991724       0.99319977     0              5.4785946      12.512497    
     30000   2.9451841      1.0282557      0              5.4438748      12.674568    
     27000   3.0590915      0.99934638     0              5.5857431      12.553145    
     27500   3.0453641      0.94234342     0              5.5081591      11.905807    
     28000   3.0511617      0.99754909     0              5.5720569      12.564704    
     30500   3.037933       0.92148058     0              5.476155       12.000693    
     27500   3.0453641      0.94234342     0              5.5081591      11.905807    
     31000   2.9677217      1.0318245      0              5.4812334      12.742131    
     31500   2.9810748      0.97289485     0              5.4423237      12.40478     
     32000   2.9934426      0.89434321     0              5.3823146      11.600942    
     28500   2.9130123      0.94568027     0              5.3130652      12.158052    
     29000   3.0102884      0.95486997     0              5.4680978      12.234012    
     32500   2.9816746      0.9225429      0              5.3928709      11.858765    
     29500   3.0842102      0.92563771     0              5.5496941      12.165909    
     22000   3.0145732      0.98937458     0              5.5090264      12.50577     
     28000   3.0511617      0.99754909     0              5.5720569      12.564704    
     30000   2.9451841      1.0282557      0              5.4438748      12.674568    
     22500   3.0880577      0.90606612     0              5.5358909      11.81806     
     30500   3.037933       0.92148058     0              5.476155       12.000693    
     31000   2.9677217      1.0318245      0              5.4812334      12.742131    
     31500   2.9810748      0.97289485     0              5.4423237      12.40478     
     28500   2.9130123      0.94568027     0              5.3130652      12.158052    
     33000   2.9603221      0.92669072     0              5.3650056      11.934444    
     29000   3.0102884      0.95486997     0              5.4680978      12.234012    
     32000   2.9934426      0.89434321     0              5.3823146      11.600942    
     33500   2.8908588      0.90290591     0              5.2370768      11.867905    
     29500   3.0842102      0.92563771     0              5.5496941      12.165909    
     34000   2.9357114      0.98950907     0              5.390926       12.342224    
     23000   3.1089635      0.88654107     0              5.5477092      11.81323     
     23500   3.0579182      0.96096693     0              5.5456046      12.261771    
     30000   2.9451841      1.0282557      0              5.4438748      12.674568    
     32500   2.9816746      0.9225429      0              5.3928709      11.858765    
     34500   2.9449441      1.0420169      0              5.4572761      12.765782    
     30500   3.037933       0.92148058     0              5.476155       12.000693    
     24000   3.1234211      1.0107614      0              5.6936054      12.596243    
     31000   2.9677217      1.0318245      0              5.4812334      12.742131    
     24500   3.0560372      0.99373551     0              5.575553       12.588249    
     31500   2.9810748      0.97289485     0              5.4423237      12.40478     
     33000   2.9603221      0.92669072     0              5.3650056      11.934444    
     35000   3.0169813      0.91886402     0              5.4421263      11.869529    
     33500   2.8908588      0.90290591     0              5.2370768      11.867905    
     34000   2.9357114      0.98950907     0              5.390926       12.342224    
     35500   2.9402543      0.95352591     0              5.3617538      12.103728    
     34500   2.9449441      1.0420169      0              5.4572761      12.765782    
     36000   2.9428718      0.96967402     0              5.3818264      12.36112     
     32000   2.9934426      0.89434321     0              5.3823146      11.600942    
     35000   3.0169813      0.91886402     0              5.4421263      11.869529    
     35500   2.9402543      0.95352591     0              5.3617538      12.103728    
     25000   3.0734678      0.96497049     0              5.5729212      12.136785    
     36500   2.8478302      0.8919172      0              5.1615766      11.505237    
     32500   2.9816746      0.9225429      0              5.3928709      11.858765    
     36000   2.9428718      0.96967402     0              5.3818264      12.36112     
     37000   2.9220854      1.0154026      0              5.3963905      12.403177    
     25500   3.0452511      1.0113509      0              5.5769971      12.620386    
     33000   2.9603221      0.92669072     0              5.3650056      11.934444    
     26000   3.0287319      0.91047229     0              5.4513518      11.753517    
     37500   2.9621371      0.97210117     0              5.4131373      12.356822    
     33500   2.8908588      0.90290591     0              5.2370768      11.867905    
     38000   2.9886524      0.92516036     0              5.4059501      11.928484    
     38500   2.9834659      0.92855012     0              5.4015637      11.83338     
     26500   2.991724       0.99319977     0              5.4785946      12.512497    
     39000   3.0068615      0.94177994     0              5.4498699      12.077467    
     39500   2.8929865      1.0295933      0              5.3669542      12.669329    
     36500   2.8478302      0.8919172      0              5.1615766      11.505237    
     34000   2.9357114      0.98950907     0              5.390926       12.342224    
     34500   2.9449441      1.0420169      0              5.4572761      12.765782    
     35000   3.0169813      0.91886402     0              5.4421263      11.869529    
     35500   2.9402543      0.95352591     0              5.3617538      12.103728    
     27000   3.0590915      0.99934638     0              5.5857431      12.553145    
     37000   2.9220854      1.0154026      0              5.3963905      12.403177    
     27500   3.0453641      0.94234342     0              5.5081591      11.905807    
     37500   2.9621371      0.97210117     0              5.4131373      12.356822    
     40000   2.9291879      1.0526637      0              5.4443001      12.657177    
     38000   2.9886524      0.92516036     0              5.4059501      11.928484    
     36000   2.9428718      0.96967402     0              5.3818264      12.36112     
     36500   2.8478302      0.8919172      0              5.1615766      11.505237    
     38500   2.9834659      0.92855012     0              5.4015637      11.83338     
     37000   2.9220854      1.0154026      0              5.3963905      12.403177    
     28000   3.0511617      0.99754909     0              5.5720569      12.564704    
     37500   2.9621371      0.97210117     0              5.4131373      12.356822    
     40500   2.9454693      0.98021612     0              5.3962627      12.246031    
     28500   2.9130123      0.94568027     0              5.3130652      12.158052    
     39000   3.0068615      0.94177994     0              5.4498699      12.077467    
     38000   2.9886524      0.92516036     0              5.4059501      11.928484    
     41000   2.9697792      0.91896031     0              5.371454       11.88991     
     29000   3.0102884      0.95486997     0              5.4680978      12.234012    
     38500   2.9834659      0.92855012     0              5.4015637      11.83338     
     39000   3.0068615      0.94177994     0              5.4498699      12.077467    
     39500   2.8929865      1.0295933      0              5.3669542      12.669329    
     40000   2.9291879      1.0526637      0              5.4443001      12.657177    
     29500   3.0842102      0.92563771     0              5.5496941      12.165909    
     39500   2.8929865      1.0295933      0              5.3669542      12.669329    
     40000   2.9291879      1.0526637      0              5.4443001      12.657177    
     41500   3.0216621      0.9004535      0              5.4307335      11.836985    
     40500   2.9454693      0.98021612     0              5.3962627      12.246031    
     30000   2.9451841      1.0282557      0              5.4438748      12.674568    
     30500   3.037933       0.92148058     0              5.476155       12.000693    
     40500   2.9454693      0.98021612     0              5.3962627      12.246031    
     41000   2.9697792      0.91896031     0              5.371454       11.88991     
     41000   2.9697792      0.91896031     0              5.371454       11.88991     
     41500   3.0216621      0.9004535      0              5.4307335      11.836985    
     31000   2.9677217      1.0318245      0              5.4812334      12.742131    
     42000   2.9415848      1.0225497      0              5.4327725      12.710154    
     31500   2.9810748      0.97289485     0              5.4423237      12.40478     
     42000   2.9415848      1.0225497      0              5.4327725      12.710154    
     41500   3.0216621      0.9004535      0              5.4307335      11.836985    
     42500   2.9702718      0.96576231     0              5.4189945      12.200707    
     32000   2.9934426      0.89434321     0              5.3823146      11.600942    
     42500   2.9702718      0.96576231     0              5.4189945      12.200707    
     43000   2.9599331      1.0123627      0              5.4500944      12.478149    
     32500   2.9816746      0.9225429      0              5.3928709      11.858765    
     42000   2.9415848      1.0225497      0              5.4327725      12.710154    
     42500   2.9702718      0.96576231     0              5.4189945      12.200707    
     43000   2.9599331      1.0123627      0              5.4500944      12.478149    
     33000   2.9603221      0.92669072     0              5.3650056      11.934444    
     43500   2.9387828      0.94171331     0              5.3477351      11.99692     
     44000   2.9486856      1.0182182      0              5.4390869      12.483172    
     43500   2.9387828      0.94171331     0              5.3477351      11.99692     
     33500   2.8908588      0.90290591     0              5.2370768      11.867905    
     44500   2.9586596      1.0104166      0              5.446239       12.452823    
     44000   2.9486856      1.0182182      0              5.4390869      12.483172    
     45000   3.0590705      0.92117323     0              5.5075385      11.916965    
     43000   2.9599331      1.0123627      0              5.4500944      12.478149    
     34000   2.9357114      0.98950907     0              5.390926       12.342224    
     34500   2.9449441      1.0420169      0              5.4572761      12.765782    
     45500   3.0969373      0.99078949     0              5.6339272      12.519169    
     46000   2.8810125      1.029408       0              5.3488167      12.610175    
     35000   3.0169813      0.91886402     0              5.4421263      11.869529    
     46500   2.9283922      1.0257935      0              5.416237       12.582653    
     43500   2.9387828      0.94171331     0              5.3477351      11.99692     
     35500   2.9402543      0.95352591     0              5.3617538      12.103728    
     44500   2.9586596      1.0104166      0              5.446239       12.452823    
     45000   3.0590705      0.92117323     0              5.5075385      11.916965    
     47000   2.9117627      0.97047481     0              5.3359863      12.133137    
     36000   2.9428718      0.96967402     0              5.3818264      12.36112     
     44000   2.9486856      1.0182182      0              5.4390869      12.483172    
     44500   2.9586596      1.0104166      0              5.446239       12.452823    
     45500   3.0969373      0.99078949     0              5.6339272      12.519169    
     45000   3.0590705      0.92117323     0              5.5075385      11.916965    
     46000   2.8810125      1.029408       0              5.3488167      12.610175    
srun: Job step aborted: Waiting up to 32 seconds for job step to finish.
mpirun: Forwarding signal 18 to job
mpirun: Forwarding signal 18 to job
mpirun: Forwarding signal 18 to job
mpirun: Forwarding signal 18 to job
slurmstepd: error: *** JOB 39667729 ON gr065 CANCELLED AT 2023-11-06T10:58:22 ***
