LAMMPS (15 Sep 2022)
OMP_NUM_THREADS environment is not set. Defaulting to 1 thread. (src/comm.cpp:98)
  using 1 OpenMP thread(s) per MPI task
Lattice spacing in x,y,z = 1.7099759 1.7099759 1.7099759
Created orthogonal box = (0 0 0) to (13.679808 13.679808 13.679808)
  1 by 2 by 2 MPI processor grid
Created 2048 atoms
  using lattice units in orthogonal box = (0 0 0) to (13.679808 13.679808 13.679808)
  create_atoms CPU = 0.000 seconds
Generated 0 of 0 mixed pair_coeff terms from geometric mixing rule
Neighbor list info ...
  update: every = 1 steps, delay = 0 steps, check = yes
  max neighbors/atom: 2000, page size: 100000
  master list distance cutoff = 1.3
  ghost atom cutoff = 1.3
  binsize = 0.65, bins = 22 22 22
  1 neighbor lists, perpetual/occasional/extra = 1 0 0
  (1) pair lj/cut, perpetual
      attributes: half, newton on
      pair build: half/bin/atomonly/newton
      stencil: half/bin/3d
      bin: standard
Setting up Verlet run ...
  Unit style    : lj
  Current step  : 0
  Time step     : 0.01
Per MPI rank memory allocation (min/avg/max) = 3.108 | 3.108 | 3.108 Mbytes
   Step          Temp          E_pair         E_mol          TotEng         Press     
         0   3              0              0              4.4978027      2.3988281    
       500   3.0180154      0.97223289     0              5.4970455      12.157516    
      1000   3.0552689      0.90726207     0              5.4879277      11.813468    
      1500   2.9415347      0.97338132     0              5.3835289      12.233588    
      2000   2.9281507      0.95337236     0              5.3434538      12.173174    
      2500   3.0158827      0.95267591     0              5.474291       12.092647    
      3000   3.0365781      0.96933616     0              5.5219793      12.335064    
      3500   3.0335577      0.95418667     0              5.5023013      12.103985    
      4000   3.1174225      0.9211036      0              5.5949541      12.071313    
      4500   3.0561496      0.99904673     0              5.5810327      12.533125    
      5000   3.1120589      1.0107376      0              5.6765466      12.701912    
      5500   3.0036657      0.94265703     0              5.4459556      11.981209    
      6000   2.9889784      0.99501003     0              5.4762884      12.428836    
      6500   3.0210388      0.98779242     0              5.517138       12.470734    
      7000   2.9443692      0.94463817     0              5.3590355      12.052693    
      7500   3.0179564      0.93171042     0              5.4564345      12.097827    
      8000   2.9673992      0.94615646     0              5.3950819      12.033183    
      8500   2.9555642      1.0208191      0              5.4520007      12.634049    
      9000   2.9826559      0.96426059     0              5.4360598      12.265244    
      9500   2.9731396      0.99438272     0              5.4519145      12.495413    
     10000   2.9916434      0.98660674     0              5.4718807      12.287884    
     10500   3.0389422      0.97502905     0              5.5312166      12.29518     
     11000   3.0345421      0.94803525     0              5.4976259      12.152328    
     11500   3.0469206      0.98167786     0              5.5498271      12.428329    
     12000   3.028784       1.0288753      0              5.569833       12.763257    
     12500   3.120455       0.96802779     0              5.6464248      12.32578     
     13000   3.025581       1.0090706      0              5.5452261      12.596667    
     13500   3.05956        0.98531101     0              5.5724101      12.48025     
     14000   3.0716793      0.98454779     0              5.589817       12.32838     
     14500   3.0064572      0.9446704      0              5.4521542      12.13505     
     15000   3.0175165      0.94317706     0              5.4672416      11.941072    
     15500   2.9212601      0.96069643     0              5.340447       12.196502    
     16000   2.9697236      0.98996268     0              5.442373       12.397944    
     16500   3.0071242      0.9140952      0              5.422579       11.916817    
     17000   2.9673096      0.98503585     0              5.4338269      12.415456    
     17500   2.9913143      0.95458094     0              5.4393615      12.180193    
     18000   2.9118025      0.96695475     0              5.3325258      12.139602    
     18500   2.9697421      0.98850321     0              5.4409412      12.155497    
     19000   2.9581989      0.99733127     0              5.4324629      12.363748    
     19500   3.0135977      0.95122302     0              5.4694124      12.15609     
     20000   2.9197999      0.96750761     0              5.345069       12.170823    
     20500   2.9871793      0.99323596     0              5.4718171      12.472659    
     21000   2.9361102      1.0341293      0              5.4361441      12.639177    
     21500   3.0331117      0.94480431     0              5.4922504      12.189267    
     22000   3.0145732      0.98937458     0              5.5090264      12.50577     
     22500   3.0880577      0.90606612     0              5.5358909      11.81806     
     23000   3.1089635      0.88654107     0              5.5477092      11.81323     
     23500   3.0579182      0.96096693     0              5.5456046      12.261771    
     24000   3.1234211      1.0107614      0              5.6936054      12.596243    
     24500   3.0560372      0.99373551     0              5.575553       12.588249    
     25000   3.0734678      0.96497049     0              5.5729212      12.136785    
     25500   3.0452511      1.0113509      0              5.5769971      12.620386    
     26000   3.0287319      0.91047229     0              5.4513518      11.753517    
     26500   2.991724       0.99319977     0              5.4785946      12.512497    
     27000   3.0590915      0.99934638     0              5.5857431      12.553145    
     27500   3.0453641      0.94234342     0              5.5081591      11.905807    
     28000   3.0511617      0.99754909     0              5.5720569      12.564704    
     28500   2.9130123      0.94568027     0              5.3130652      12.158052    
     29000   3.0102884      0.95486997     0              5.4680978      12.234012    
     29500   3.0842102      0.92563771     0              5.5496941      12.165909    
     30000   2.9451841      1.0282557      0              5.4438748      12.674568    
     30500   3.037933       0.92148058     0              5.476155       12.000693    
     31000   2.9677217      1.0318245      0              5.4812334      12.742131    
     31500   2.9810748      0.97289485     0              5.4423237      12.40478     
     32000   2.9934426      0.89434321     0              5.3823146      11.600942    
     32500   2.9816746      0.9225429      0              5.3928709      11.858765    
     33000   2.9603221      0.92669072     0              5.3650056      11.934444    
     33500   2.8908588      0.90290591     0              5.2370768      11.867905    
     34000   2.9357114      0.98950907     0              5.390926       12.342224    
     34500   2.9449441      1.0420169      0              5.4572761      12.765782    
     35000   3.0169813      0.91886402     0              5.4421263      11.869529    
     35500   2.9402543      0.95352591     0              5.3617538      12.103728    
     36000   2.9428718      0.96967402     0              5.3818264      12.36112     
     36500   2.8478302      0.8919172      0              5.1615766      11.505237    
     37000   2.9220854      1.0154026      0              5.3963905      12.403177    
     37500   2.9621371      0.97210117     0              5.4131373      12.356822    
     38000   2.9886524      0.92516036     0              5.4059501      11.928484    
     38500   2.9834659      0.92855012     0              5.4015637      11.83338     
     39000   3.0068615      0.94177994     0              5.4498699      12.077467    
     39500   2.8929865      1.0295933      0              5.3669542      12.669329    
     40000   2.9291879      1.0526637      0              5.4443001      12.657177    
     40500   2.9454693      0.98021612     0              5.3962627      12.246031    
     41000   2.9697792      0.91896031     0              5.371454       11.88991     
     41500   3.0216621      0.9004535      0              5.4307335      11.836985    
     42000   2.9415848      1.0225497      0              5.4327725      12.710154    
     42500   2.9702718      0.96576231     0              5.4189945      12.200707    
     43000   2.9599331      1.0123627      0              5.4500944      12.478149    
     43500   2.9387828      0.94171331     0              5.3477351      11.99692     
     44000   2.9486856      1.0182182      0              5.4390869      12.483172    
     44500   2.9586596      1.0104166      0              5.446239       12.452823    
     45000   3.0590705      0.92117323     0              5.5075385      11.916965    
     45500   3.0969373      0.99078949     0              5.6339272      12.519169    
     46000   2.8810125      1.029408       0              5.3488167      12.610175    
     46500   2.9283922      1.0257935      0              5.416237       12.582653    
     47000   2.9117627      0.97047481     0              5.3359863      12.133137    
     47500   2.973586       1.005396       0              5.4635971      12.366354    
     48000   3.0856301      0.92572125     0              5.5519064      11.933635    
     48500   3.0234437      1.0296591      0              5.5626102      12.628979    
     49000   3.0322645      1.0250809      0              5.5712567      12.763706    
     49500   3.0380294      0.96717387     0              5.5219928      12.377869    
     50000   2.9994129      1.0013935      0              5.4983159      12.521806    
Loop time of 8.07055 on 4 procs for 50000 steps with 2048 atoms

Performance: 5352792.266 tau/day, 6195.361 timesteps/s, 12.688 Matom-step/s
99.7% CPU use with 4 MPI tasks x 1 OpenMP threads

MPI task timing breakdown:
Section |  min time  |  avg time  |  max time  |%varavg| %total
---------------------------------------------------------------
Pair    | 0.94258    | 0.9564     | 0.96919    |   1.3 | 11.85
Neigh   | 4.9427     | 4.9731     | 4.9988     |   1.0 | 61.62
Comm    | 1.4949     | 1.5039     | 1.5152     |   0.7 | 18.63
Output  | 0.0013548  | 0.0019617  | 0.0037115  |   2.3 |  0.02
Modify  | 0.3957     | 0.43911    | 0.48005    |   5.2 |  5.44
Other   |            | 0.1961     |            |       |  2.43

Nlocal:            512 ave         521 max         504 min
Histogram: 1 1 0 0 0 0 0 1 0 1
Nghost:          646.5 ave         659 max         638 min
Histogram: 2 0 0 0 0 1 0 0 0 1
Neighs:        1870.75 ave        1949 max        1826 min
Histogram: 2 0 0 0 1 0 0 0 0 1

Total # of neighbors = 7483
Ave neighs/atom = 3.6538086
Neighbor list builds = 20369
Dangerous builds = 0
Generated 0 of 0 mixed pair_coeff terms from geometric mixing rule
Setting up Verlet run ...
  Unit style    : lj
  Current step  : 50000
  Time step     : 0.01
Per MPI rank memory allocation (min/avg/max) = 3.182 | 3.182 | 3.182 Mbytes
   Step          Temp          E_pair         E_mol          TotEng         Press     
     50000   2.9994129      1.0013935      0              5.4983159      12.521806    
     50500   3.0599221      0.95538384     0              5.5430258      12.252576    
     51000   3.0744025      1.0040929      0              5.613445       12.531099    
     51500   2.9956448      0.9250065      0              5.4162797      11.86154     
     52000   2.9611175      1.0060391      0              5.4455466      12.326428    
     52500   2.9334899      0.91985745     0              5.3179438      11.764514    
     53000   2.8999429      0.99329414     0              5.3410845      12.381879    
     53500   2.9211192      0.98329798     0              5.3628373      12.345261    
     54000   2.9417534      0.9351531      0              5.3456287      12.031112    
     54500   2.8775654      0.98146913     0              5.2957096      12.30829     
     55000   2.833726       0.92211591     0              5.1706295      11.791895    
     55500   2.8052042      0.98914546     0              5.1948972      12.169405    
     56000   2.8205615      0.92055297     0              5.1493294      11.818282    
     56500   2.8019644      0.94789761     0              5.148792       11.732492    
     57000   2.7884985      0.94395096     0              5.1246563      11.990072    
     57500   2.7676681      0.98883708     0              5.1383121      12.211847    
     58000   2.8500037      0.93497783     0              5.2078959      11.731946    
     58500   2.7819584      0.87961933     0              5.0505194      11.360013    
     59000   2.7474703      0.87857858     0              4.9977718      11.531188    
     59500   2.7091853      0.85615832     0              4.917952       11.148585    
     60000   2.697493       0.86097516     0              4.905239       11.259704    
     60500   2.6380414      0.84230984     0              4.7974398      11.002625    
     61000   2.6959253      0.83571516     0              4.8776285      11.046461    
     61500   2.666614       0.88464869     0              4.8826166      11.353063    
     62000   2.7016688      0.83332488     0              4.8838493      10.941007    
     62500   2.7096885      0.8198238      0              4.882372       10.904875    
     63000   2.7512421      0.82277296     0              4.947621       11.024809    
     63500   2.694781       0.82772909     0              4.8679268      10.894806    
     64000   2.6145007      0.83108143     0              4.7509175      10.942928    
     64500   2.5725934      0.81117218     0              4.6681781      10.607837    
     65000   2.5337065      0.8052484      0              4.6039524      10.754095    
     65500   2.5122574      0.79407095     0              4.5606171      10.522523    
     66000   2.5185408      0.77510418     0              4.5510707      10.386913    
     66500   2.5140803      0.76318436     0              4.5324635      10.311075    
     67000   2.5975488      0.73051794     0              4.6249386      10.260709    
     67500   2.5197105      0.81978316     0              4.5975034      10.766189    
     68000   2.515653       0.81036061     0              4.5819975      10.648498    
     68500   2.5402839      0.77141816     0              4.5799834      10.411058    
     69000   2.4853835      0.75577903     0              4.4820339      10.146051    
     69500   2.3916918      0.82996892     0              4.4157548      10.568847    
     70000   2.4106242      0.76516108     0              4.3793318      10.338023    
     70500   2.4590198      0.71012486     0              4.3968535      9.9272356    
     71000   2.459033       0.75484308     0              4.4415915      10.164255    
     71500   2.4362772      0.7309988      0              4.3836302      9.9613151    
     72000   2.3600969      0.77324858     0              4.3116654      10.218674    
     72500   2.2998382      0.76207704     0              4.2101498      10.104326    
     73000   2.3248964      0.72400243     0              4.2096442      9.822737     
     73500   2.3106102      0.72730405     0              4.1915271      9.7828265    
     74000   2.3476778      0.7829843      0              4.3027816      10.208004    
     74500   2.3352406      0.72655628     0              4.2277067      9.9656617    
     75000   2.2459793      0.70931608     0              4.07664        9.8505573    
     75500   2.2282422      0.67426598     0              4.0149973      9.3827258    
     76000   2.2523115      0.63202656     0              4.0088442      9.0911522    
     76500   2.2174536      0.68917028     0              4.0137266      9.5534249    
     77000   2.1911188      0.71087439     0              3.9959478      9.6491327    
     77500   2.1375863      0.68588246     0              3.8906962      9.3412332    
     78000   2.1636504      0.65149093     0              3.8953818      9.231741     
     78500   2.1007191      0.62178451     0              3.7713245      8.8302891    
     79000   2.1244719      0.64473514     0              3.8298871      9.0455192    
     79500   2.1334193      0.64046618     0              3.8390326      8.9875262    
     80000   2.0948036      0.63476067     0              3.7754317      9.0292445    
     80500   2.1349238      0.62437191     0              3.825194       8.7751005    
     81000   2.0658411      0.60782049     0              3.7050691      8.751299     
     81500   2.0958676      0.61325744     0              3.7555238      8.7917131    
     82000   2.1003661      0.63416182     0              3.7831726      9.0241656    
     82500   2.090197       0.65174517     0              3.7855098      9.0307285    
     83000   2.1076665      0.59731566     0              3.7572717      8.5323536    
     83500   2.0300527      0.6450254      0              3.6886177      8.9981451    
     84000   2.0141263      0.63669388     0              3.6564082      8.9851221    
     84500   2.0611284      0.61497686     0              3.7051599      8.743854     
     85000   1.9998432      0.58775364     0              3.5860537      8.4050163    
     85500   1.9637503      0.59892455     0              3.5431118      8.5351305    
     86000   1.9066107      0.57635232     0              3.4348719      8.3837271    
     86500   1.9523899      0.56946385     0              3.4966188      8.2941557    
     87000   1.9444715      0.58011089     0              3.495394       8.4123678    
     87500   1.9422717      0.54287177     0              3.4548568      8.1496764    
     88000   1.9216592      0.60625106     0              3.4873324      8.6270159    
     88500   1.8819716      0.57312327     0              3.3947023      8.3390883    
     89000   1.8632304      0.55699881     0              3.3504798      8.1400697    
     89500   1.8549314      0.52555568     0              3.3065942      7.9595879    
     90000   1.8316333      0.506661       0              3.2527694      7.6449484    
     90500   1.7890119      0.56636065     0              3.2485682      8.1125576    
     91000   1.7792678      0.54203495     0              3.2096335      7.9010323    
     91500   1.7429997      0.53520952     0              3.1484325      7.7996568    
     92000   1.7799586      0.50892359     0              3.1775578      7.6335392    
     92500   1.7445114      0.53464038     0              3.1501298      7.8925001    
     93000   1.7374192      0.50311256     0              3.1079689      7.5590337    
     93500   1.7117093      0.51950745     0              3.0858177      7.6591888    
     94000   1.7080662      0.52664358     0              3.0874919      7.7521949    
     94500   1.6813425      0.50411937     0              3.0249016      7.5198838    
     95000   1.6875183      0.50927335     0              3.0393148      7.5509238    
     95500   1.6969274      0.51331788     0              3.0574661      7.6245158    
     96000   1.6878918      0.46856137     0              2.9991628      7.2858009    
     96500   1.6940765      0.45451214     0              2.9943862      7.1577517    
     97000   1.6564152      0.45124147     0              2.9346511      7.0606312    
     97500   1.6464101      0.45725218     0              2.9256614      7.0571352    
     98000   1.6219943      0.47926503     0              2.9110685      7.2535749    
     98500   1.5952406      0.47437965     0              2.8660722      7.3179984    
     99000   1.6017626      0.49673205     0              2.8982027      7.3913373    
     99500   1.5630416      0.46221234     0              2.8056299      7.0541528    
    100000   1.5721569      0.43181135     0              2.7888952      6.7995983    
    100500   1.5285222      0.47446316     0              2.7661269      7.1901778    
    101000   1.5078507      0.44248419     0              2.7031559      6.77692      
    101500   1.4677149      0.42924872     0              2.6297461      6.5898808    
    102000   1.4824075      0.41306248     0              2.6355881      6.5563614    
    102500   1.4404209      0.44540934     0              2.6049857      6.7434986    
    103000   1.4598768      0.38910566     0              2.5778516      6.2692102    
    103500   1.4447047      0.41129406     0              2.577293       6.5660278    
    104000   1.4184038      0.39941892     0              2.5259857      6.3999384    
    104500   1.4232586      0.40087451     0              2.53472        6.2964935    
    105000   1.4169849      0.43663896     0              2.5610785      6.8181426    
    105500   1.4281045      0.35205263     0              2.4931633      6.0109773    
    106000   1.3899555      0.37869529     0              2.4626105      6.2055683    
    106500   1.3476909      0.41331283     0              2.4338621      6.4321101    
    107000   1.3396567      0.38329199     0              2.3917958      6.2224218    
    107500   1.2986311      0.36448899     0              2.3114845      5.9991252    
    108000   1.3052222      0.33801539     0              2.2948927      5.7736327    
    108500   1.2408066      0.39598207     0              2.2562832      6.1891145    
    109000   1.2469656      0.36443319     0              2.2339683      5.889143     
    109500   1.2722724      0.34849958     0              2.2559763      5.8236478    
    110000   1.2433726      0.34370139     0              2.2078496      5.6592057    
    110500   1.2247664      0.36389205     0              2.2001446      5.8369997    
    111000   1.2401121      0.33411785     0              2.1933777      5.6341537    
    111500   1.2245599      0.33536841     0              2.1713114      5.6821995    
    112000   1.2381977      0.34439583     0              2.2007855      5.7218001    
    112500   1.2328228      0.32862022     0              2.1769515      5.5299737    
    113000   1.2004432      0.32946912     0              2.1292546      5.5950635    
    113500   1.1627578      0.33835167     0              2.0816368      5.6175399    
    114000   1.1362363      0.29441771     0              1.99794        5.1383698    
    114500   1.0934493      0.31380592     0              1.9531791      5.2913669    
    115000   1.1084839      0.28596369     0              1.9478776      5.0275787    
    115500   1.0960944      0.29227559     0              1.9356144      5.1203832    
    116000   1.0725235      0.26582814     0              1.8738279      4.796261     
    116500   1.0600553      0.28972546     0              1.879032       5.0477769    
    117000   1.0319589      0.28498387     0              1.8321664      4.9659097    
    117500   1.0621021      0.2454292      0              1.8378044      4.5414303    
    118000   1.0225837      0.27271685     0              1.8058435      4.8823809    
    118500   0.99031772     0.26577436     0              1.7505256      4.7639402    
    119000   0.99579404     0.241153       0              1.7341147      4.4903356    
    119500   0.97422733     0.26588799     0              1.7265154      4.7064534    
    120000   0.97920639     0.25287737     0              1.7209698      4.6242989    
    120500   0.93068472     0.21388743     0              1.6092329      4.1422187    
    121000   0.93195902     0.23977544     0              1.6370314      4.3911367    
    121500   0.91664622     0.24479765     0              1.6190956      4.5258346    
    122000   0.90301142     0.25046799     0              1.6043237      4.4986512    
    122500   0.92739412     0.21879448     0              1.6092064      4.2315888    
    123000   0.8953063      0.22136183     0              1.5636655      4.209267     
    123500   0.88776343     0.20294384     0              1.5339388      4.0175273    
    124000   0.85639593     0.22968352     0              1.5136502      4.278818     
    124500   0.87242226     0.22668117     0              1.5346756      4.2651957    
    125000   0.83769969     0.19810498     0              1.454041       3.8687566    
    125500   0.83106866     0.21915133     0              1.4651456      4.1586216    
    126000   0.78915101     0.20320876     0              1.3863573      3.9012807    
    126500   0.7856397      0.19491747     0              1.3728016      3.8035425    
    127000   0.78067843     0.19151828     0              1.3619641      3.7648292    
    127500   0.77207953     0.18796207     0              1.3455159      3.7513664    
    128000   0.74044595     0.18927198     0              1.2993986      3.6543945    
    128500   0.71123462     0.16626962     0              1.2326006      3.4296434    
    129000   0.71709468     0.16368633     0              1.2388031      3.4246253    
    129500   0.70944922     0.1650013      0              1.2286555      3.388306     
    130000   0.68664922     0.1663445      0              1.1958154      3.4453374    
    130500   0.67279094     0.15730221     0              1.1659958      3.2962301    
    131000   0.64756199     0.13942164     0              1.1102903      3.0967698    
    131500   0.63162942     0.14870812     0              1.0956896      3.101889     
    132000   0.63321304     0.14167624     0              1.091032       3.1098661    
    132500   0.61335536     0.14256643     0              1.0621502      3.062287     
    133000   0.60423515     0.14433277     0              1.0502429      3.0865929    
    133500   0.57340776     0.13054167     0              0.99023333     2.8525194    
    134000   0.54682585     0.13103799     0              0.95087626     2.8817804    
    134500   0.55443208     0.11610228     0              0.94734433     2.672869     
    135000   0.54828693     0.12391239     0              0.94594121     2.7759853    
    135500   0.50830038     0.12529613     0              0.88737441     2.771315     
    136000   0.49609021     0.11328382     0              0.85705578     2.6129822    
    136500   0.48047247     0.11074067     0              0.83109747     2.5672303    
    137000   0.48467563     0.10471297     0              0.83137143     2.4821317    
    137500   0.46274148     0.10183417     0              0.79560747     2.3684703    
    138000   0.45168299     0.10049462     0              0.77768828     2.4092636    
    138500   0.44332016     0.095362499    0              0.76001804     2.3244334    
    139000   0.43132982     0.085333883    0              0.7320127      2.1480026    
    139500   0.41847676     0.079048287    0              0.70645692     2.0763761    
    140000   0.38717606     0.074760027    0              0.65524054     1.9399335    
    140500   0.36953731     0.072761585    0              0.62679689     1.8820978    
    141000   0.3607385      0.076316524    0              0.61716005     2.004246     
    141500   0.3518591      0.069666428    0              0.59719737     1.8325978    
    142000   0.33160924     0.05859228     0              0.55576327     1.6606717    
    142500   0.31129201     0.060890762    0              0.52760079     1.6441856    
    143000   0.30832607     0.052680868    0              0.51494414     1.5672065    
    143500   0.28936717     0.053867187    0              0.487706       1.5571342    
    144000   0.27678147     0.051585422    0              0.4665549      1.4936301    
    144500   0.25256662     0.043748376    0              0.42241332     1.3776238    
    145000   0.24537807     0.040666814    0              0.40855421     1.2846686    
    145500   0.23349122     0.036407507    0              0.38647332     1.2036914    
    146000   0.21509196     0.031529304    0              0.35400971     1.0849472    
    146500   0.20071454     0.033230236    0              0.33415504     1.1225978    
    147000   0.17907442     0.03086282     0              0.2993433      1.0527993    
    147500   0.17265025     0.025980443    0              0.28482937     0.93882427   
    148000   0.15493045     0.023351978    0              0.25563417     0.86935683   
    148500   0.14313124     0.020681014    0              0.23527304     0.80076964   
    149000   0.12824031     0.018068373    0              0.21033491     0.72524295   
    149500   0.11610953     0.014298853    0              0.18837811     0.64617037   
    150000   0.1012354      0.013243737    0              0.16502269     0.60332537   
Loop time of 12.6375 on 4 procs for 100000 steps with 2048 atoms

Performance: 6836804.591 tau/day, 7912.968 timesteps/s, 16.206 Matom-step/s
99.4% CPU use with 4 MPI tasks x 1 OpenMP threads

MPI task timing breakdown:
Section |  min time  |  avg time  |  max time  |%varavg| %total
---------------------------------------------------------------
Pair    | 1.6519     | 1.6717     | 1.6928     |   1.5 | 13.23
Neigh   | 6.9159     | 6.9548     | 6.9856     |   1.0 | 55.03
Comm    | 2.5749     | 2.6182     | 2.6577     |   1.9 | 20.72
Output  | 0.14276    | 0.14298    | 0.14353    |   0.1 |  1.13
Modify  | 0.80157    | 0.89415    | 0.95664    |   6.7 |  7.08
Other   |            | 0.3556     |            |       |  2.81

Nlocal:            512 ave         518 max         505 min
Histogram: 1 1 0 0 0 0 0 0 0 2
Nghost:         653.25 ave         659 max         638 min
Histogram: 1 0 0 0 0 0 0 0 0 3
Neighs:           1972 ave        2014 max        1944 min
Histogram: 1 0 1 1 0 0 0 0 0 1

Total # of neighbors = 7888
Ave neighs/atom = 3.8515625
Neighbor list builds = 28425
Dangerous builds = 0
Total wall time: 0:00:20
LAMMPS (15 Sep 2022)
OMP_NUM_THREADS environment is not set. Defaulting to 1 thread. (src/comm.cpp:98)
  using 1 OpenMP thread(s) per MPI task
Lattice spacing in x,y,z = 1.6441414 1.6441414 1.6441414
Created orthogonal box = (0 0 0) to (13.153131 13.153131 13.153131)
  2 by 1 by 2 MPI processor grid
Created 2048 atoms
  using lattice units in orthogonal box = (0 0 0) to (13.153131 13.153131 13.153131)
  create_atoms CPU = 0.000 seconds
Generated 0 of 0 mixed pair_coeff terms from geometric mixing rule
Neighbor list info ...
  update: every = 1 steps, delay = 0 steps, check = yes
  max neighbors/atom: 2000, page size: 100000
  master list distance cutoff = 1.3
  ghost atom cutoff = 1.3
  binsize = 0.65, bins = 21 21 21
  1 neighbor lists, perpetual/occasional/extra = 1 0 0
  (1) pair lj/cut, perpetual
      attributes: half, newton on
      pair build: half/bin/atomonly/newton
      stencil: half/bin/3d
      bin: standard
Setting up Verlet run ...
  Unit style    : lj
  Current step  : 0
  Time step     : 0.01
Per MPI rank memory allocation (min/avg/max) = 3.103 | 3.103 | 3.103 Mbytes
   Step          Temp          E_pair         E_mol          TotEng         Press     
         0   3              0              0              4.4978027      2.6986816    
       500   3.1314259      1.3066066      0              6.001452       17.64529     
      1000   3.0670853      1.3568804      0              5.955262       18.057453    
      1500   3.013409       1.4314686      0              5.9493749      18.560565    
      2000   3.1521386      1.4017429      0              6.1276421      18.309009    
      2500   2.9966621      1.3822342      0              5.8750326      18.137355    
      3000   3.0614462      1.3309795      0              5.9209066      17.833438    
      3500   3.0504891      1.3967949      0              5.9702943      18.34684     
      4000   3.0337143      1.3523773      0              5.9007267      17.983197    
      4500   3.0591734      1.2480671      0              5.8345866      17.1144      
      5000   2.9376421      1.3366221      0              5.7409337      17.775913    
      5500   2.9466984      1.2830442      0              5.7009336      17.12969     
      6000   2.9638401      1.3547292      0              5.7983185      17.854526    
      6500   2.9823391      1.2989129      0              5.7702372      17.177223    
      7000   3.0461361      1.280521       0              5.8474941      17.348542    
      7500   3.0657005      1.4342986      0              6.0306041      18.527622    
      8000   2.9710401      1.3231908      0              5.7775749      17.871206    
      8500   2.9572552      1.3635514      0              5.7972682      17.992248    
      9000   2.9242559      1.3045646      0              5.6888066      17.421752    
      9500   2.997378       1.2372199      0              5.7310915      16.951529    
     10000   3.0232924      1.2868934      0              5.8196177      17.305142    
     10500   3.0221205      1.3375261      0              5.8684934      17.76823     
     11000   2.9849682      1.3742636      0              5.8495297      18.056888    
     11500   3.0756175      1.3400313      0              5.951205       17.707028    
     12000   3.0579873      1.2849496      0              5.8696907      17.381193    
     12500   3.0619815      1.2981673      0              5.8888969      17.527252    
     13000   3.044014       1.3456969      0              5.9094885      18.003068    
     13500   3.0677875      1.3409219      0              5.9403562      17.855893    
     14000   3.0333175      1.31975        0              5.8675046      17.656563    
     14500   2.9691888      1.2342657      0              5.6858743      16.830539    
     15000   2.9681336      1.2369581      0              5.6869846      17.069005    
     15500   2.9254359      1.3453065      0              5.7313177      17.608804    
     16000   2.8974414      1.3787278      0              5.7227678      17.933459    
     16500   3.0781206      1.2291752      0              5.8441017      16.87784     
     17000   3.0134097      1.3629344      0              5.8808419      17.793862    
     17500   2.9727186      1.3259425      0              5.7828431      17.650337    
     18000   3.0214106      1.2910325      0              5.8209355      17.603772    
     18500   2.9775707      1.4293271      0              5.8935023      18.406032    
     19000   3.0064829      1.303094       0              5.8106164      17.601464    
     19500   2.9730608      1.2892417      0              5.7466554      17.399453    
     20000   2.9464284      1.3147738      0              5.7322584      17.369962    
     20500   3.0233464      1.3055809      0              5.8383861      17.523317    
     21000   3.0393543      1.3850606      0              5.941866       18.044617    
     21500   3.0474165      1.2976801      0              5.8665728      17.536155    
     22000   3.0412645      1.3125401      0              5.8722094      17.616105    
     22500   3.1159729      1.268446       0              5.9401231      17.201236    
     23000   3.0506988      1.3127167      0              5.8865305      17.538648    
     23500   3.0114272      1.3587283      0              5.8736635      17.919375    
     24000   2.9939982      1.3567384      0              5.8455429      17.78435     
     24500   3.0880536      1.3889299      0              6.0187486      17.967168    
     25000   2.9861848      1.3450443      0              5.8221344      17.782762    
     25500   3.0269462      1.3159824      0              5.8541847      17.623503    
     26000   3.0566544      1.2345418      0              5.8172846      17.050255    
     26500   3.0918812      1.3423772      0              5.9779344      17.70128     
     27000   2.9915742      1.2813303      0              5.7665006      17.207246    
     27500   2.9944755      1.2870441      0              5.7765642      17.251325    
     28000   2.9372485      1.2866676      0              5.690389       17.161144    
     28500   2.9447178      1.4041699      0              5.8190899      18.278265    
     29000   2.9768587      1.2986207      0              5.7617284      17.345934    
     29500   2.9823177      1.3076628      0              5.778955       17.434894    
     30000   2.9439449      1.3180186      0              5.7317798      17.681641    
     30500   2.9898727      1.2641055      0              5.7467247      17.080719    
     31000   2.9275322      1.3482361      0              5.7373903      17.907006    
     31500   2.9315593      1.3529263      0              5.7481181      17.847148    
     32000   2.8346019      1.2414131      0              5.4912398      17.053073    
     32500   2.9719496      1.2766048      0              5.7323524      17.034303    
     33000   2.9575372      1.3971038      0              5.8312434      18.245088    
     33500   3.0584394      1.3747328      0              5.9601519      18.055935    
     34000   3.0870267      1.3447405      0              5.9730196      17.926393    
     34500   3.0845253      1.3414257      0              5.9659545      18.008301    
     35000   3.0108311      1.3688508      0              5.8828922      17.780441    
     35500   2.9962014      1.2708373      0              5.762945       17.087955    
     36000   2.9281025      1.3118507      0              5.7018598      17.329346    
     36500   2.9379972      1.3450029      0              5.7498468      17.541182    
     37000   2.9482128      1.3346716      0              5.7548314      17.957977    
     37500   3.0223389      1.3362822      0              5.867577       17.734525    
     38000   3.1172228      1.3688829      0              6.042434       17.9795      
     38500   3.009384       1.2861948      0              5.7980666      17.239361    
     39000   2.999383       1.3099784      0              5.8068561      17.511055    
     39500   3.0025367      1.3074335      0              5.8090393      17.453502    
     40000   3.0481809      1.3620257      0              5.9320644      17.78348     
     40500   3.0877979      1.3135742      0              5.9430096      17.6171      
     41000   3.0243225      1.3741716      0              5.9084403      18.031365    
     41500   3.0286254      1.3449207      0              5.8856405      17.851908    
     42000   2.967787       1.3020678      0              5.7515747      17.532261    
     42500   2.9143502      1.2807858      0              5.6501767      17.197497    
     43000   3.0139221      1.3025808      0              5.8212565      17.440371    
     43500   2.87775        1.2993167      0              5.6138339      17.5488      
     44000   2.9833629      1.3092111      0              5.7820704      17.749362    
     44500   2.9856161      1.2678181      0              5.7440555      17.292168    
     45000   2.9267876      1.3870444      0              5.7750822      18.100787    
     45500   3.0127084      1.2656622      0              5.7825181      17.196205    
     46000   2.9828701      1.3198962      0              5.7920167      17.615218    
     46500   3.021253       1.2675085      0              5.7971752      17.191263    
     47000   2.9466321      1.3640432      0              5.7818331      17.865936    
     47500   3.0096245      1.3071515      0              5.819384       17.527916    
     48000   3.1047384      1.3454597      0              6.0002933      17.831408    
     48500   2.9288265      1.3653712      0              5.7564657      17.809294    
     49000   2.9874039      1.3337846      0              5.8127023      17.617781    
     49500   3.057278       1.3094728      0              5.8931507      17.610171    
     50000   2.9766988      1.3082709      0              5.771139       17.488757    
Loop time of 8.64821 on 4 procs for 50000 steps with 2048 atoms

Performance: 4995254.505 tau/day, 5781.545 timesteps/s, 11.841 Matom-step/s
99.6% CPU use with 4 MPI tasks x 1 OpenMP threads

MPI task timing breakdown:
Section |  min time  |  avg time  |  max time  |%varavg| %total
---------------------------------------------------------------
Pair    | 1.1279     | 1.1469     | 1.1655     |   1.3 | 13.26
Neigh   | 5.3555     | 5.3688     | 5.398      |   0.7 | 62.08
Comm    | 1.461      | 1.5004     | 1.5352     |   2.2 | 17.35
Output  | 0.0014579  | 0.0020613  | 0.0038024  |   2.2 |  0.02
Modify  | 0.39855    | 0.43783    | 0.47454    |   4.9 |  5.06
Other   |            | 0.1922     |            |       |  2.22

Nlocal:            512 ave         525 max         506 min
Histogram: 2 0 1 0 0 0 0 0 0 1
Nghost:          686.5 ave         696 max         671 min
Histogram: 1 0 0 0 0 0 0 2 0 1
Neighs:        2177.25 ave        2261 max        2129 min
Histogram: 2 0 0 1 0 0 0 0 0 1

Total # of neighbors = 8709
Ave neighs/atom = 4.2524414
Neighbor list builds = 20143
Dangerous builds = 0
Generated 0 of 0 mixed pair_coeff terms from geometric mixing rule
Setting up Verlet run ...
  Unit style    : lj
  Current step  : 50000
  Time step     : 0.01
Per MPI rank memory allocation (min/avg/max) = 3.178 | 3.178 | 3.178 Mbytes
   Step          Temp          E_pair         E_mol          TotEng         Press     
     50000   2.9766988      1.3082709      0              5.771139       17.488757    
     50500   2.9409964      1.2999926      0              5.7093332      17.488632    
     51000   2.9808652      1.2662006      0              5.7353151      17.106406    
     51500   2.9616366      1.2682639      0              5.7085496      17.119578    
     52000   2.9269458      1.3478964      0              5.7361714      17.57938     
     52500   2.8766078      1.2699433      0              5.5827482      17.022522    
     53000   2.8863965      1.3103899      0              5.6378705      17.520578    
     53500   2.9974115      1.2903862      0              5.7843082      17.375494    
     54000   2.8518687      1.3011773      0              5.5768916      17.133124    
     54500   2.8718335      1.2946851      0              5.600332       17.367844    
     55000   2.9364458      1.2691896      0              5.6717076      17.074164    
     55500   2.9253596      1.2978293      0              5.683726       17.302408    
     56000   2.8562085      1.2531476      0              5.5353685      16.962699    
     56500   2.9417946      1.2454305      0              5.6559677      17.041083    
     57000   2.819062       1.1811397      0              5.407668       16.136098    
     57500   2.8215971      1.1571165      0              5.3874456      16.192277    
     58000   2.752535       1.1897908      0              5.3165773      16.335493    
     58500   2.7439192      1.1970869      0              5.310956       16.476178    
     59000   2.7422841      1.2116576      0              5.3230753      16.45958     
     59500   2.7336594      1.2848723      0              5.3833591      17.057346    
     60000   2.6951999      1.2461575      0              5.2869834      16.845748    
     60500   2.7575182      1.1430431      0              5.2773007      15.919508    
     61000   2.6577421      1.2135477      0              5.1982142      16.379572    
     61500   2.6769749      1.1546164      0              5.168118       15.962076    
     62000   2.6339984      1.0564463      0              5.0055147      15.041409    
     62500   2.5933523      1.1864001      0              5.0745292      16.028679    
     63000   2.6251603      1.0996115      0              5.0354292      15.387619    
     63500   2.5584346      1.1367905      0              4.9725685      15.785011    
     64000   2.5739684      1.0662046      0              4.925272       15.080723    
     64500   2.5547033      1.0621103      0              4.892294       14.887009    
     65000   2.5586903      1.0898733      0              4.9260346      15.424825    
     65500   2.5825554      1.0637982      0              4.9357399      15.204096    
     66000   2.5435111      1.1328061      0              4.9462098      15.682752    
     66500   2.5071041      1.1375627      0              4.8963826      15.460813    
     67000   2.5493693      1.0774395      0              4.8996263      15.237149    
     67500   2.4805619      1.1204881      0              4.8395141      15.515191    
     68000   2.494552       1.1210503      0              4.8610513      15.419131    
     68500   2.5084068      1.0954859      0              4.8562589      15.321657    
     69000   2.5222813      0.99384145     0              4.775416       14.530846    
     69500   2.4222427      1.013012       0              4.644602       14.702055    
     70000   2.4027279      1.0498793      0              4.6522113      14.910458    
     70500   2.4122048      1.0161159      0              4.6326563      14.630855    
     71000   2.3998751      1.0323232      0              4.6303781      14.559645    
     71500   2.4284555      1.0666124      0              4.7075171      15.048702    
     72000   2.4358055      0.95195469     0              4.603879       14.057878    
     72500   2.3042843      1.0415884      0              4.4963272      14.64554     
     73000   2.279839       1.0153199      0              4.4334087      14.443586    
     73500   2.3303321      0.9356622      0              4.4294536      13.765624    
     74000   2.2774307      0.95808613     0              4.3725642      13.791604    
     74500   2.2842176      0.92574255     0              4.3503959      13.638677    
     75000   2.3147064      0.89446998     0              4.3648342      13.335029    
     75500   2.1691991      1.0127026      0              4.2649124      14.366371    
     76000   2.2346022      0.96661995     0              4.3168866      13.885521    
     76500   2.3112286      0.934533       0              4.3996831      13.697275    
     77000   2.2379155      0.94203097     0              4.2972651      13.879738    
     77500   2.2514609      0.93128006     0              4.3068224      13.569718    
     78000   2.2763635      0.9865273      0              4.3994053      14.124192    
     78500   2.1930548      0.92757472     0              4.2155507      13.538693    
     79000   2.199786       0.90324469     0              4.2013124      13.250364    
     79500   2.1618602      0.94052762     0              4.1817346      13.752175    
     80000   2.0930949      0.92569002     0              4.0637994      13.349553    
     80500   2.1148098      0.90883817     0              4.079504       13.418363    
     81000   2.0717049      0.91330392     0              4.019344       13.320741    
     81500   2.103869       0.87522983     0              4.0294923      12.899156    
     82000   2.0414357      0.87389238     0              3.9345508      12.958865    
     82500   2.0330278      0.84150395     0              3.8895567      12.608713    
     83000   2.0098033      0.80424685     0              3.8174798      12.351575    
     83500   2.035775       0.80179962     0              3.8539711      12.217025    
     84000   1.9666013      0.82301436     0              3.7714759      12.407562    
     84500   1.9907892      0.83433389     0              3.8190595      12.574576    
     85000   1.9162236      0.86681838     0              3.7397503      12.768946    
     85500   1.9315981      0.83219552     0              3.7281779      12.559707    
     86000   1.9157111      0.82560003     0              3.6977636      12.551171    
     86500   1.9262577      0.80111564     0              3.6890914      12.191031    
     87000   1.9498562      0.77271017     0              3.6960663      11.944625    
     87500   1.9037915      0.80745327     0              3.6617462      12.180241    
     88000   1.9227552      0.8063228      0              3.6890473      12.159044    
     88500   1.9025405      0.69621399     0              3.5486313      11.148474    
     89000   1.8315731      0.79994776     0              3.5459659      12.179196    
     89500   1.8606678      0.7216774      0              3.5113162      11.537646    
     90000   1.8368347      0.72526738     0              3.4791741      11.481478    
     90500   1.799334       0.72758694     0              3.42527        11.377836    
     91000   1.7983834      0.68542874     0              3.3816867      10.875174    
     91500   1.7735094      0.73363335     0              3.3925985      11.379661    
     92000   1.7497169      0.71276748     0              3.3360612      11.11285     
     92500   1.7573738      0.70005758     0              3.3348312      11.005483    
     93000   1.7446684      0.71311056     0              3.3288353      11.310506    
     93500   1.7286397      0.70028842     0              3.2919819      11.238513    
     94000   1.6966065      0.69850565     0              3.2421728      10.878201    
     94500   1.6923609      0.67379351     0              3.2110954      10.866568    
     95000   1.6942873      0.68012237     0              3.2203125      10.830538    
     95500   1.6908425      0.68598471     0              3.2210101      10.902597    
     96000   1.6548144      0.68264856     0              3.1636582      10.823469    
     96500   1.6706688      0.66142588     0              3.1662054      10.596858    
     97000   1.6385706      0.68373904     0              3.1403948      10.861569    
     97500   1.6246918      0.6829543      0              3.118802       10.959369    
     98000   1.6474012      0.65566291     0              3.1255581      10.388928    
     98500   1.6064542      0.64248851     0              3.0509932      10.346329    
     99000   1.6188069      0.61401165     0              3.0410363      10.144341    
     99500   1.576624       0.67411694     0              3.0378982      10.806481    
    100000   1.5739735      0.63061254     0              2.99042        10.213787    
    100500   1.535468       0.62671189     0              2.9287894      10.235071    
    101000   1.5544774      0.57131725     0              2.9018948      9.6242673    
    101500   1.4992626      0.63282534     0              2.8806212      10.188804    
    102000   1.5097394      0.5869094      0              2.8504127      9.8495071    
    102500   1.4835618      0.61454974     0              2.8388059      10.02539     
    103000   1.5100593      0.59162445     0              2.8556074      9.8183268    
    103500   1.5077953      0.56826891     0              2.8288575      9.557884     
    104000   1.4663983      0.56253462     0              2.7610581      9.5070993    
    104500   1.3963381      0.619967       0              2.7134514      10.061998    
    105000   1.3848595      0.54415454     0              2.6204295      9.3660016    
    105500   1.3870885      0.54550015     0              2.6251169      9.1742447    
    106000   1.3773066      0.5081407      0              2.5730919      8.8412916    
    106500   1.348986       0.52928194     0              2.5517729      9.104667     
    107000   1.3661469      0.52359611     0              2.5718158      8.8878506    
    107500   1.3418262      0.50652401     0              2.5182806      8.7886785    
    108000   1.3525937      0.49634734     0              2.5242472      8.8092537    
    108500   1.3100285      0.49684508     0              2.4609284      8.5577315    
    109000   1.2984501      0.49428698     0              2.4410112      8.7232705    
    109500   1.2814687      0.46467214     0              2.3859367      8.2684881    
    110000   1.2366174      0.48278816     0              2.3368086      8.4329365    
    110500   1.2196903      0.44924442     0              2.2778866      8.1592922    
    111000   1.2135037      0.47808485     0              2.2974516      8.4661411    
    111500   1.2327239      0.46524176     0              2.3134248      8.2491935    
    112000   1.1851013      0.47948891     0              2.2562728      8.3126091    
    112500   1.1909827      0.41053838     0              2.1961401      7.6924182    
    113000   1.1583603      0.41686913     0              2.1535611      7.7242626    
    113500   1.1565435      0.38655846     0              2.1205266      7.3994597    
    114000   1.1241619      0.44160737     0              2.1270269      7.9253198    
    114500   1.1293196      0.4239426      0              2.1170949      7.8306968    
    115000   1.1093035      0.41716763     0              2.0803104      7.6612763    
    115500   1.1155851      0.39766427     0              2.0702248      7.4506102    
    116000   1.096116       0.37691908     0              2.0202903      7.2041396    
    116500   1.0626333      0.40275426     0              1.9959259      7.3845099    
    117000   1.0639243      0.37282934     0              1.9679366      7.1187207    
    117500   1.0474215      0.39147914     0              1.9618442      7.221349     
    118000   1.039876       0.38012046     0              1.9391728      7.246134     
    118500   1.0355738      0.37225992     0              1.9248621      7.0857805    
    119000   0.99340892     0.34722835     0              1.8366141      6.8324646    
    119500   0.99231117     0.33230389     0              1.8200439      6.5967008    
    120000   0.97605024     0.3490051      0              1.8123656      6.699181     
    120500   0.9562125      0.33256224     0              1.7661806      6.5324537    
    121000   0.95394176     0.33216837     0              1.7623823      6.4635745    
    121500   0.90917949     0.3419009      0              1.7050042      6.6047975    
    122000   0.92133096     0.31190893     0              1.6932306      6.2470127    
    122500   0.91341873     0.34327704     0              1.7127361      6.5576355    
    123000   0.88282749     0.31989296     0              1.6434876      6.2207286    
    123500   0.88001977     0.32145956     0              1.6408447      6.2773847    
    124000   0.83993913     0.29659084     0              1.5558843      6.0278501    
    124500   0.83880887     0.28939784     0              1.5469968      5.962303     
    125000   0.82194254     0.31068546     0              1.5429973      6.1221748    
    125500   0.8063793      0.27584566     0              1.484824       5.6739226    
    126000   0.79324676     0.28117459     0              1.4704637      5.7861923    
    126500   0.77156121     0.26027833     0              1.417055       5.4838351    
    127000   0.77510678     0.2401665      0              1.402259       5.2199443    
    127500   0.75582893     0.23599482     0              1.3691846      5.217323     
    128000   0.74909838     0.2204196      0              1.3435185      4.86276      
    128500   0.72434317     0.22218294     0              1.3081672      4.9862497    
    129000   0.71852952     0.23164091     0              1.3089089      5.0852831    
    129500   0.69111513     0.23479559     0              1.2709621      5.0273508    
    130000   0.67606963     0.21959182     0              1.2332011      4.9138689    
    130500   0.66188875     0.20351057     0              1.1958589      4.7007515    
    131000   0.63600716     0.21811825     0              1.1716632      4.8785339    
    131500   0.63676619     0.20920269     0              1.1638856      4.7110543    
    132000   0.6353818      0.19769724     0              1.1503046      4.5597253    
    132500   0.61734845     0.20370283     0              1.1292734      4.5834924    
    133000   0.59790173     0.18834015     0              1.0847548      4.3513591    
    133500   0.56826734     0.17407181     0              1.0260566      4.1670152    
    134000   0.54752262     0.1788266      0              0.99970952     4.236106     
    134500   0.53953166     0.17883956     0              0.9877419      4.2023917    
    135000   0.53636587     0.1649624      0              0.96911836     4.0269902    
    135500   0.51923861     0.16263251     0              0.94111012     3.9459078    
    136000   0.51408658     0.1497088      0              0.92046215     3.7560576    
    136500   0.49575219     0.15732396     0              0.90058915     3.8819072    
    137000   0.48176691     0.14519988     0              0.86749739     3.6698374    
    137500   0.47346962     0.13384443     0              0.84370208     3.5198162    
    138000   0.45383551     0.12981299     0              0.81023385     3.3961854    
    138500   0.4482098      0.13804086     0              0.81002728     3.4917077    
    139000   0.417449       0.12648905     0              0.7523568      3.260572     
    139500   0.40784412     0.11958508     0              0.73105256     3.2037282    
    140000   0.40601566     0.10480008     0              0.7135262      2.9374994    
    140500   0.37643096     0.10825565     0              0.67262638     2.9864889    
    141000   0.36471461     0.10086565     0              0.64767044     2.8880571    
    141500   0.34742694     0.087458459    0              0.6083444      2.6348969    
    142000   0.33077369     0.094313771    0              0.59023204     2.724326     
    142500   0.31494958     0.07745841     0              0.54965211     2.3990657    
    143000   0.3035664      0.077177618    0              0.53230487     2.3658867    
    143500   0.29579245     0.083761207    0              0.52723324     2.5078088    
    144000   0.27123849     0.069389332    0              0.4760484      2.2169035    
    144500   0.26528007     0.060144691    0              0.4578705      2.0277859    
    145000   0.24511869     0.06122091     0              0.42871941     2.0015304    
    145500   0.22683962     0.055566345    0              0.39565963     1.8849879    
    146000   0.21618036     0.048853141    0              0.37296535     1.7209964    
    146500   0.20548194     0.046311766    0              0.35438418     1.6726695    
    147000   0.18770004     0.039100718    0              0.3205133      1.4799064    
    147500   0.17427436     0.038519871    0              0.29980377     1.4538518    
    148000   0.16013508     0.032948722    0              0.27303406     1.3278847    
    148500   0.14523943     0.028409777    0              0.24616255     1.2042073    
    149000   0.131069       0.024407977    0              0.22091548     1.0854752    
    149500   0.11628983     0.021284878    0              0.19563444     0.97478753   
    150000   0.10327872     0.015874551    0              0.17071699     0.82523186   
Loop time of 13.6488 on 4 procs for 100000 steps with 2048 atoms

Performance: 6330222.568 tau/day, 7326.646 timesteps/s, 15.005 Matom-step/s
99.3% CPU use with 4 MPI tasks x 1 OpenMP threads

MPI task timing breakdown:
Section |  min time  |  avg time  |  max time  |%varavg| %total
---------------------------------------------------------------
Pair    | 1.9936     | 2.0233     | 2.0546     |   1.5 | 14.82
Neigh   | 7.5418     | 7.556      | 7.5822     |   0.6 | 55.36
Comm    | 2.5238     | 2.6107     | 2.6708     |   3.7 | 19.13
Output  | 0.22212    | 0.22236    | 0.22295    |   0.1 |  1.63
Modify  | 0.81412    | 0.89083    | 0.95414    |   6.6 |  6.53
Other   |            | 0.3457     |            |       |  2.53

Nlocal:            512 ave         517 max         509 min
Histogram: 2 0 0 0 0 1 0 0 0 1
Nghost:            678 ave         688 max         672 min
Histogram: 1 1 0 1 0 0 0 0 0 1
Neighs:        2317.25 ave        2346 max        2287 min
Histogram: 1 0 0 0 1 0 1 0 0 1

Total # of neighbors = 9269
Ave neighs/atom = 4.5258789
Neighbor list builds = 28281
Dangerous builds = 0
Total wall time: 0:00:22
LAMMPS (15 Sep 2022)
OMP_NUM_THREADS environment is not set. Defaulting to 1 thread. (src/comm.cpp:98)
  using 1 OpenMP thread(s) per MPI task
Lattice spacing in x,y,z = 1.5874011 1.5874011 1.5874011
Created orthogonal box = (0 0 0) to (12.699208 12.699208 12.699208)
  1 by 2 by 2 MPI processor grid
Created 2048 atoms
  using lattice units in orthogonal box = (0 0 0) to (12.699208 12.699208 12.699208)
  create_atoms CPU = 0.000 seconds
Generated 0 of 0 mixed pair_coeff terms from geometric mixing rule
Neighbor list info ...
  update: every = 1 steps, delay = 0 steps, check = yes
  max neighbors/atom: 2000, page size: 100000
  master list distance cutoff = 1.3
  ghost atom cutoff = 1.3
  binsize = 0.65, bins = 20 20 20
  1 neighbor lists, perpetual/occasional/extra = 1 0 0
  (1) pair lj/cut, perpetual
      attributes: half, newton on
      pair build: half/bin/atomonly/newton
      stencil: half/bin/3d
      bin: standard
Setting up Verlet run ...
  Unit style    : lj
  Current step  : 0
  Time step     : 0.01
Per MPI rank memory allocation (min/avg/max) = 3.102 | 3.102 | 3.102 Mbytes
   Step          Temp          E_pair         E_mol          TotEng         Press     
         0   3              0              0              4.4978027      2.9985352    
       500   3.2135645      1.8078493      0              6.6258423      25.576763    
      1000   3.074284       1.8738291      0              6.4830034      25.923556    
      1500   3.0414503      1.8342402      0              6.3941881      25.324561    
      2000   3.0531859      1.8195754      0              6.397118       25.402174    
      2500   3.0334269      1.8611605      0              6.4090791      25.697903    
      3000   3.1150987      1.8047194      0              6.4750859      25.339918    
      3500   3.0012144      1.8170805      0              6.316704       25.169081    
      4000   3.076764       1.8319604      0              6.4448529      25.585157    
      4500   3.1185995      1.7748584      0              6.4504735      25.195277    
      5000   2.970997       1.8477516      0              6.3020711      25.45136     
      5500   3.0579205      1.8976383      0              6.4822793      26.050299    
      6000   2.9858478      1.8484094      0              6.3249942      25.749142    
      6500   3.0547039      1.9115796      0              6.4913982      26.245732    
      7000   3.0011526      1.7573819      0              6.2569127      24.823175    
      7500   3.0955414      1.8672587      0              6.5083035      26.085164    
      8000   3.0272704      1.7440831      0              6.2827715      24.872901    
      8500   2.9826954      1.860033       0              6.3318915      25.654622    
      9000   2.9965105      1.7799168      0              6.2724879      25.060385    
      9500   3.0503226      1.8545597      0              6.4278095      25.541662    
     10000   2.9701371      1.8235007      0              6.2765309      25.26124     
     10500   2.9507729      1.7838557      0              6.2078538      25.020034    
     11000   2.9811248      1.7523333      0              6.2218371      24.838909    
     11500   2.9416399      1.7269275      0              6.1372329      24.635145    
     12000   3.0133752      1.7357125      0              6.2535683      24.890091    
     12500   2.9928664      1.8301426      0              6.3172501      25.46815     
     13000   3.0126798      1.8237466      0              6.3405597      25.434506    
     13500   3.0344455      1.7878003      0              6.337246       25.275609    
     14000   2.9846005      1.823249       0              6.2979638      25.082065    
     14500   3.0026624      1.7942326      0              6.2960271      25.011552    
     15000   2.9269843      1.8776638      0              6.2659964      25.943439    
     15500   2.9550657      1.8366132      0              6.2670474      25.43775     
     16000   3.0492045      1.793302       0              6.3648755      25.444346    
     16500   3.0093603      1.902848       0              6.4146842      26.194073    
     17000   2.990352       1.8530534      0              6.3363913      25.616476    
     17500   3.0020055      1.8050772      0              6.3058867      25.277222    
     18000   3.0256058      1.7859024      0              6.322095       25.338836    
     18500   3.1082362      1.8494067      0              6.5094844      25.816075    
     19000   3.016034       1.7812924      0              6.3031344      25.020612    
     19500   3.0934738      1.8297362      0              6.4676812      25.519901    
     20000   2.9453022      1.7651133      0              6.1809095      24.851941    
     20500   2.9674159      1.8255121      0              6.2744625      25.467967    
     21000   3.0181547      1.7819037      0              6.3069252      24.830727    
     21500   3.025322       1.736606       0              6.2723731      24.601138    
     22000   3.0572668      1.8532694      0              6.4369304      25.743871    
     22500   2.975124       1.8372116      0              6.2977185      25.652959    
     23000   3.0256432      1.8388395      0              6.3750882      25.439135    
     23500   2.9443463      1.7913882      0              6.2057512      25.090091    
     24000   2.954923       1.7959716      0              6.2261918      25.117505    
     24500   3.0425269      1.7773105      0              6.3388724      25.217581    
     25000   3.0117457      1.763091       0              6.2785037      24.957497    
     25500   3.039307       1.8121646      0              6.368899       25.530286    
     26000   2.9492836      1.7267549      0              6.1485202      24.617573    
     26500   3.043199       1.7648815      0              6.3274511      25.086618    
     27000   2.9377406      1.7984474      0              6.2029067      25.123412    
     27500   3.0478148      1.7390123      0              6.3085022      24.599531    
     28000   3.0308827      1.943009       0              6.4871132      26.57327     
     28500   2.9421926      1.7973347      0              6.2084687      24.8593      
     29000   2.9721345      1.8960808      0              6.3521057      26.134435    
     29500   2.9171202      1.767716       0              6.1412598      24.92538     
     30000   3.0539421      1.715048       0              6.2937243      24.68637     
     30500   3.0126498      1.8074842      0              6.3242523      25.572881    
     31000   3.0393781      1.8476153      0              6.4044563      25.655616    
     31500   3.0327417      1.9197059      0              6.4665972      26.117787    
     32000   2.9493067      1.8367601      0              6.25856        25.654859    
     32500   3.1369362      1.789457       0              6.4925637      25.279398    
     33000   2.9277542      1.8035675      0              6.1930545      25.31719     
     33500   3.0318715      1.7916807      0              6.3372674      24.917598    
     34000   2.9522288      1.6683932      0              6.0945742      24.037269    
     34500   3.0217281      1.7618447      0              6.2922236      24.88141     
     35000   3.084146       1.8285376      0              6.4524976      25.385794    
     35500   2.9721589      1.8329445      0              6.289006       25.519079    
     36000   3.0894897      1.7805193      0              6.412491       25.26813     
     36500   3.0169325      1.7398704      0              6.2630596      24.586137    
     37000   3.115425       1.7992022      0              6.4700579      25.462953    
     37500   2.9526115      1.8660942      0              6.292849       25.62815     
     38000   3.0227295      1.926826       0              6.4587064      26.353947    
     38500   3.0131915      1.779718       0              6.2972983      25.160526    
     39000   3.0381261      1.7665039      0              6.3214679      24.762066    
     39500   3.0016877      1.8148977      0              6.3152307      25.340648    
     40000   2.9818238      1.7921494      0              6.2627011      25.278063    
     40500   2.9722125      1.8192822      0              6.2754241      25.27295     
     41000   2.979149       1.7577891      0              6.2243306      24.905278    
     41500   2.9665157      1.746071       0              6.1936718      24.728397    
     42000   2.9563043      1.8592657      0              6.2915569      25.553038    
     42500   3.1255049      1.7684619      0              6.4544302      25.065158    
     43000   2.8670615      1.8492514      0              6.1477437      25.461238    
     43500   3.0090879      1.7707853      0              6.2822133      25.156076    
     44000   3.0096732      1.7016126      0              6.213918       24.343963    
     44500   3.0296477      1.8085472      0              6.3507998      25.183139    
     45000   3.0766916      1.8847165      0              6.4975005      25.994981    
     45500   2.9676515      1.8044028      0              6.2537065      25.428489    
     46000   3.0025152      1.8649193      0              6.3664931      25.868783    
     46500   3.0038769      1.7630097      0              6.266625       24.736224    
     47000   3.0087562      1.7340034      0              6.244934       24.691812    
     47500   2.9655102      1.8012469      0              6.2473401      25.198401    
     48000   2.9570507      1.8219729      0              6.2553832      25.468037    
     48500   2.9855535      1.7964912      0              6.2726349      25.217138    
     49000   3.048674       1.6878723      0              6.2586505      24.255207    
     49500   3.0539688      1.8270432      0              6.4057597      25.377787    
     50000   3.0882639      1.7785223      0              6.4086562      25.190684    
Loop time of 9.395 on 4 procs for 50000 steps with 2048 atoms

Performance: 4598190.329 tau/day, 5321.980 timesteps/s, 10.899 Matom-step/s
99.6% CPU use with 4 MPI tasks x 1 OpenMP threads

MPI task timing breakdown:
Section |  min time  |  avg time  |  max time  |%varavg| %total
---------------------------------------------------------------
Pair    | 1.3476     | 1.3595     | 1.3865     |   1.3 | 14.47
Neigh   | 5.8112     | 5.8524     | 5.892      |   1.2 | 62.29
Comm    | 1.5299     | 1.5508     | 1.5786     |   1.6 | 16.51
Output  | 0.0013112  | 0.0018884  | 0.0035667  |   2.2 |  0.02
Modify  | 0.39805    | 0.43528    | 0.47342    |   4.9 |  4.63
Other   |            | 0.1951     |            |       |  2.08

Nlocal:            512 ave         522 max         501 min
Histogram: 1 0 0 0 1 0 1 0 0 1
Nghost:            712 ave         715 max         708 min
Histogram: 1 0 0 0 1 0 0 0 1 1
Neighs:        2449.75 ave        2524 max        2348 min
Histogram: 1 0 0 0 0 0 2 0 0 1

Total # of neighbors = 9799
Ave neighs/atom = 4.784668
Neighbor list builds = 20135
Dangerous builds = 0
Generated 0 of 0 mixed pair_coeff terms from geometric mixing rule
Setting up Verlet run ...
  Unit style    : lj
  Current step  : 50000
  Time step     : 0.01
Per MPI rank memory allocation (min/avg/max) = 3.177 | 3.177 | 3.177 Mbytes
   Step          Temp          E_pair         E_mol          TotEng         Press     
     50000   3.0882639      1.7785223      0              6.4086562      25.190684    
     50500   2.9894068      1.8485944      0              6.330515       25.649763    
     51000   2.8852444      1.7961369      0              6.1218903      25.300672    
     51500   2.9449847      1.7721089      0              6.1874289      24.889192    
     52000   2.9728888      1.6721037      0              6.1292595      24.232529    
     52500   2.9350306      1.7575073      0              6.1579035      24.9811      
     53000   2.8228333      1.7519769      0              5.9841594      24.523563    
     53500   2.9354737      1.7117621      0              6.1128226      24.32094     
     54000   2.9015431      1.7164396      0              6.0666291      24.254596    
     54500   2.9174183      1.6383594      0              6.0123501      23.509665    
     55000   2.8429442      1.6289217      0              5.8912558      23.303498    
     55500   2.8641735      1.7353757      0              6.0295382      24.328355    
     56000   2.796098       1.6498178      0              5.8419168      23.574586    
     56500   2.7437755      1.719765       0              5.8334187      24.197124    
     57000   2.7772013      1.6593085      0              5.8230764      24.039363    
     57500   2.6973202      1.6881162      0              5.732121       23.92532     
     58000   2.8371994      1.5478253      0              5.8015463      22.635001    
     58500   2.8553834      1.5551874      0              5.8361712      22.97323     
     59000   2.7594518      1.6771059      0              5.8142626      23.669893    
     59500   2.8588503      1.6020411      0              5.8882226      23.320259    
     60000   2.7219697      1.6438081      0              5.724769       23.546199    
     60500   2.726342       1.6723253      0              5.7598414      23.742135    
     61000   2.6555834      1.6190267      0              5.6004568      23.290763    
slurmstepd: error: *** JOB 39657656 ON ga043 CANCELLED AT 2023-11-06T00:09:34 DUE TO TIME LIMIT ***
