
Scratch directory: /tmp/

  //>>>>>>>>>>>>>>>>>>>>>>>>>>>>>>>>>>>>>//
  // ManyBody Setup: N-Body Levels [1, 2]//
  //<<<<<<<<<<<<<<<<<<<<<<<<<<<<<<<<<<<<<//

        Number of 1-body computations:     2
        Number of 2-body computations:     1

    -----------------------------------------------------------------------
          Psi4: An Open-Source Ab Initio Electronic Structure Package
                               Psi4 1.7a1.dev44 

                         Git: Rev {master} 2792bff 


    D. G. A. Smith, L. A. Burns, A. C. Simmonett, R. M. Parrish,
    M. C. Schieber, R. Galvelis, P. Kraus, H. Kruse, R. Di Remigio,
    A. Alenaizan, A. M. James, S. Lehtola, J. P. Misiewicz, M. Scheurer,
    R. A. Shaw, J. B. Schriber, Y. Xie, Z. L. Glick, D. A. Sirianni,
    J. S. O'Brien, J. M. Waldrop, A. Kumar, E. G. Hohenstein,
    B. P. Pritchard, B. R. Brooks, H. F. Schaefer III, A. Yu. Sokolov,
    K. Patkowski, A. E. DePrince III, U. Bozkaya, R. A. King,
    F. A. Evangelista, J. M. Turney, T. D. Crawford, C. D. Sherrill,
    J. Chem. Phys. 152(18) 184108 (2020). https://doi.org/10.1063/5.0006002

                            Additional Code Authors
    E. T. Seidl, C. L. Janssen, E. F. Valeev, M. L. Leininger,
    J. F. Gonthier, R. M. Richard, H. R. McAlexander, M. Saitow, X. Wang,
    P. Verma, M. H. Lechner, and A. Jiang

             Previous Authors, Complete List of Code Contributors,
                       and Citations for Specific Modules
    https://github.com/psi4/psi4/blob/master/codemeta.json
    https://github.com/psi4/psi4/graphs/contributors
    http://psicode.org/psi4manual/master/introduction.html#citing-psifour

    -----------------------------------------------------------------------


    Psi4 started on: Saturday, 18 November 2023 05:42PM

    Process ID: 3262685
    Host:       cs064.hpc.nyu.edu
    PSIDATADIR: /ext3/miniconda3/share/psi4
    Memory:     500.0 MiB
    Threads:    1
    
  ==> Input QCSchema <==

--------------------------------------------------------------------------
{'driver': 'energy',
 'extras': {'psiapi': True, 'wfn_qcvars_only': True},
 'id': None,
 'keywords': {'FREEZE_CORE': '1', 'function_kwargs': {}},
 'model': {'basis': 'aug-cc-pvdz', 'method': 'ccsd(t)'},
 'molecule': {'atom_labels': ['', ''],
              'atomic_numbers': [10, 10],
              'fix_com': True,
              'fix_orientation': True,
              'fragment_charges': [0.0, 0.0],
              'fragment_multiplicities': [1, 1],
              'fragments': [[0], [1]],
              'geometry': [0.0, 0.0, -3.3070207195511996, 0.0, 0.0, 3.3070207195511996],
              'mass_numbers': [20, 20],
              'masses': [19.9924401762, 19.9924401762],
              'molecular_charge': 0.0,
              'molecular_multiplicity': 1,
              'name': 'Ne2',
              'provenance': {'creator': 'QCElemental',
                             'routine': 'qcelemental.molparse.from_string',
                             'version': 'v0.25.1'},
              'real': [False, True],
              'schema_name': 'qcschema_molecule',
              'schema_version': 2,
              'symbols': ['Ne', 'Ne'],
              'validated': True},
 'protocols': {'stdout': True},
 'provenance': {'creator': 'QCElemental', 'routine': 'qcelemental.models.results', 'version': 'v0.25.1'},
 'schema_name': 'qcschema_input',
 'schema_version': 1}
--------------------------------------------------------------------------

Scratch directory: /tmp/

*** tstart() called on cs064.hpc.nyu.edu
*** at Sat Nov 18 17:43:21 2023

   => Loading Basis Set <=

    Name: AUG-CC-PVDZ
    Role: ORBITAL
    Keyword: BASIS
    atoms 1-2 entry NE         line   326 file /ext3/miniconda3/share/psi4/basis/aug-cc-pvdz.gbs 


         ---------------------------------------------------------
                                   SCF
               by Justin Turney, Rob Parrish, Andy Simmonett
                          and Daniel G. A. Smith
                              RHF Reference
                        1 Threads,    500 MiB Core
         ---------------------------------------------------------

  ==> Geometry <==

    Molecular point group: c2v
    Full point group: C_inf_v

    Geometry (in Bohr), charge = 0, multiplicity = 1:

       Center              X                  Y                   Z               Mass       
    ------------   -----------------  -----------------  -----------------  -----------------
      Gh(NE)          0.000000000000     0.000000000000    -3.307020719551    19.992440176200
         NE           0.000000000000     0.000000000000     3.307020719551    19.992440176200

  Running in c2v symmetry.

  Rotational constants: A = ************  B =      0.13767  C =      0.13767 [cm^-1]
  Rotational constants: A = ************  B =   4127.10294  C =   4127.10294 [MHz]
  Nuclear repulsion =    0.000000000000000

  Charge       = 0
  Multiplicity = 1
  Electrons    = 10
  Nalpha       = 5
  Nbeta        = 5

  ==> Algorithm <==

  SCF Algorithm Type is PK.
  DIIS enabled.
  MOM disabled.
  Fractional occupation disabled.
  Guess Type is SAD.
  Energy threshold   = 1.00e-08
  Density threshold  = 1.00e-08
  Integral threshold = 1.00e-12

  ==> Primary Basis <==

  Basis Set: AUG-CC-PVDZ
    Blend: AUG-CC-PVDZ
    Number of shells: 18
    Number of basis functions: 46
    Number of Cartesian functions: 50
    Spherical Harmonics?: true
    Max angular momentum: 2

  ==> Integral Setup <==

  Using in-core PK algorithm.
   Calculation information:
      Number of atoms:                   2
      Number of AO shells:              18
      Number of primitives:             50
      Number of atomic orbitals:        50
      Number of basis functions:        46

      Integral cutoff                 1.00e-12
      Number of threads:                 1

  Performing in-core PK
  Using 1169642 doubles for integral storage.
  We computed 11769 shell quartets total.
  Whereas there are 14706 unique shell quartets.

  ==> DiskJK: Disk-Based J/K Matrices <==

    J tasked:                  Yes
    K tasked:                  Yes
    wK tasked:                  No
    Memory [MiB]:              375
    Schwarz Cutoff:          1E-12

    OpenMP threads:              1

  Minimum eigenvalue in the overlap matrix is 8.4774284444E-02.
  Reciprocal condition number of the overlap matrix is 3.7150204617E-02.
    Using symmetric orthogonalization.

  ==> Pre-Iterations <==

  SCF Guess: Superposition of Atomic Densities via on-the-fly atomic UHF (no occupation information).

   -------------------------
    Irrep   Nso     Nmo    
   -------------------------
     A1        22      22 
     A2         4       4 
     B1        10      10 
     B2        10      10 
   -------------------------
    Total      46      46
   -------------------------

  ==> Iterations <==

                        Total Energy        Delta E     RMS |[F,P]|

   @RHF iter SAD:  -128.49634722923187   -1.28496e+02   0.00000e+00 
   @RHF iter   1:  -128.49635684127566   -9.61204e-06   5.63686e-05 DIIS
   @RHF iter   2:  -128.49635730738623   -4.66111e-07   2.81110e-05 DIIS
   @RHF iter   3:  -128.49635744082951   -1.33443e-07   5.62865e-07 DIIS
   @RHF iter   4:  -128.49635744099163   -1.62117e-10   5.81914e-08 DIIS
   @RHF iter   5:  -128.49635744099277   -1.13687e-12   4.02003e-09 DIIS
  Energy and wave function converged.


  ==> Post-Iterations <==

    Orbital Energies [Eh]
    ---------------------

    Doubly Occupied:                                                      

       1A1   -32.794950     2A1    -1.940414     3A1    -0.853033  
       1B1    -0.853027     1B2    -0.853027  

    Virtual:                                                              

       4A1     0.157218     5A1     0.234907     2B2     0.243519  
       2B1     0.243519     6A1     0.293432     3B1     0.309148  
       3B2     0.309148     7A1     0.417173     8A1     1.043529  
       4B1     1.307563     4B2     1.307563     9A1     1.334187  
       1A2     1.757699    10A1     1.757699     5B1     1.758527  
       5B2     1.758527    11A1     1.769813     6B1     1.963481  
       6B2     1.963481    12A1     1.982370     2A2     2.123621  
      13A1     2.123621     7B1     2.125291     7B2     2.125291  
      14A1     2.145605    15A1     2.778672    16A1     4.654904  
      17A1     6.372486     3A2     6.372486     8B2     6.372776  
       8B1     6.372776    18A1     6.377882     9B2     8.944711  
       9B1     8.944711    19A1     8.955359    20A1     8.956244  
       4A2     8.956244    10B1     8.956603    10B2     8.956603  
      21A1     8.982368    22A1    53.408106  

    Final Occupation by Irrep:
             A1    A2    B1    B2 
    DOCC [     3,    0,    1,    1 ]
    NA   [     3,    0,    1,    1 ]
    NB   [     3,    0,    1,    1 ]

  @RHF Final Energy:  -128.49635744099277

   => Energetics <=

    Nuclear Repulsion Energy =              0.0000000000000000
    One-Electron Energy =                -182.4038126849777655
    Two-Electron Energy =                  53.9074552439849910
    Total Energy =                       -128.4963574409927674

Computation Completed


Properties will be evaluated at   0.000000,   0.000000,   0.000000 [a0]

Properties computed using the SCF density matrix


 Multipole Moments:

 ------------------------------------------------------------------------------------
     Multipole            Electronic (a.u.)      Nuclear  (a.u.)        Total (a.u.)
 ------------------------------------------------------------------------------------

 L = 1.  Multiply by 2.5417464519 to convert [e a0] to [Debye]
 Dipole X            :          0.0000000            0.0000000            0.0000000
 Dipole Y            :          0.0000000            0.0000000            0.0000000
 Dipole Z            :        -33.0700636           33.0702072            0.0001436
 Magnitude           :                                                    0.0001436

 ------------------------------------------------------------------------------------

*** tstop() called on cs064.hpc.nyu.edu at Sat Nov 18 17:43:21 2023
Module time:
	user time   =       0.26 seconds =       0.00 minutes
	system time =       0.01 seconds =       0.00 minutes
	total time  =          0 seconds =       0.00 minutes
Total time:
	user time   =      10.96 seconds =       0.18 minutes
	system time =       3.09 seconds =       0.05 minutes
	total time  =         73 seconds =       1.22 minutes
 MINTS: Wrapper to libmints.
   by Justin Turney

   Calculation information:
      Number of threads:                 1
      Number of atoms:                   2
      Number of AO shells:              18
      Number of SO shells:              18
      Number of primitives:             50
      Number of atomic orbitals:        50
      Number of basis functions:        46

      Number of irreps:                  4
      Integral cutoff                 1.00e-12
      Number of functions per irrep: [  22    4   10   10 ]

 OEINTS: Overlap, kinetic, potential, dipole, and quadrupole integrals
         stored in file 35.

      Computing two-electron integrals...done
      Computed 93467 non-zero two-electron integrals.
        Stored in file 33.


*** tstart() called on cs064.hpc.nyu.edu
*** at Sat Nov 18 17:43:21 2023


	Wfn Parameters:
	--------------------
	Wavefunction         = CCSD_T
	Number of irreps     = 4
	Number of MOs        = 46
	Number of active MOs = 45
	AO-Basis             = NONE
	Semicanonical        = false
	Reference            = RHF
	Print Level          = 1

	IRREP	# MOs	# FZDC	# DOCC	# SOCC	# VIRT	# FZVR
	-----	-----	------	------	------	------	------
	 A1	   22	    1	    2	    0	    19	    0
	 A2	   4	    0	    0	    0	    4	    0
	 B1	   10	    0	    1	    0	    9	    0
	 B2	   10	    0	    1	    0	    9	    0
	Transforming integrals...
	IWL integrals will be deleted.
	(OO|OO)...
	Presorting SO-basis two-electron integrals.
	Sorting File: SO Ints (nn|nn) nbuckets = 1
	Constructing frozen core operators
	Starting first half-transformation.
	Sorting half-transformed integrals.
	First half integral transformation complete.
	Starting second half-transformation.
	Two-electron integral transformation complete.
	(OO|OV)...
	Starting second half-transformation.
	Two-electron integral transformation complete.
	(OO|VV)...
	Starting second half-transformation.
	Two-electron integral transformation complete.
	(OV|OO)...
	Starting first half-transformation.
	Sorting half-transformed integrals.
	First half integral transformation complete.
	Starting second half-transformation.
	Two-electron integral transformation complete.
	(OV|OV)...
	Starting second half-transformation.
	Two-electron integral transformation complete.
	(OV|VV)...
	Starting second half-transformation.
	Two-electron integral transformation complete.
	(VV|OO)...
	Starting first half-transformation.
	Sorting half-transformed integrals.
	First half integral transformation complete.
	Starting second half-transformation.
	Two-electron integral transformation complete.
	(VV|OV)...
	Starting second half-transformation.
	Two-electron integral transformation complete.
	(VV|VV)...
	Starting second half-transformation.
	Two-electron integral transformation complete.
	Frozen core energy     =    -93.84889919265963

	Size of irrep 0 of <ab|cd> integrals:      0.291 (MW) /      2.324 (MB)
	Size of irrep 1 of <ab|cd> integrals:      0.099 (MW) /      0.789 (MB)
	Size of irrep 2 of <ab|cd> integrals:      0.171 (MW) /      1.371 (MB)
	Size of irrep 3 of <ab|cd> integrals:      0.171 (MW) /      1.371 (MB)
	Total:                                     0.732 (MW) /      5.855 (MB)

	Size of irrep 0 of <ia|bc> integrals:      0.030 (MW) /      0.241 (MB)
	Size of irrep 1 of <ia|bc> integrals:      0.008 (MW) /      0.065 (MB)
	Size of irrep 2 of <ia|bc> integrals:      0.017 (MW) /      0.136 (MB)
	Size of irrep 3 of <ia|bc> integrals:      0.017 (MW) /      0.136 (MB)
	Total:                                     0.072 (MW) /      0.578 (MB)

	Size of irrep 0 of tijab amplitudes:       0.003 (MW) /      0.026 (MB)
	Size of irrep 1 of tijab amplitudes:       0.001 (MW) /      0.005 (MB)
	Size of irrep 2 of tijab amplitudes:       0.002 (MW) /      0.013 (MB)
	Size of irrep 3 of tijab amplitudes:       0.002 (MW) /      0.013 (MB)
	Total:                                     0.007 (MW) /      0.057 (MB)

	Nuclear Rep. energy          =      0.00000000000000
	SCF energy                   =   -128.49635744099277
	One-electron energy          =    -60.29591428672204
	Two-electron energy          =     25.64845603838906
	Reference energy             =   -128.49635744099260

*** tstop() called on cs064.hpc.nyu.edu at Sat Nov 18 17:43:21 2023
Module time:
	user time   =       0.05 seconds =       0.00 minutes
	system time =       0.04 seconds =       0.00 minutes
	total time  =          0 seconds =       0.00 minutes
Total time:
	user time   =      11.11 seconds =       0.19 minutes
	system time =       3.14 seconds =       0.05 minutes
	total time  =         73 seconds =       1.22 minutes
            **************************
            *                        *
            *        CCENERGY        *
            *                        *
            **************************

    Nuclear Rep. energy (wfn)     =    0.000000000000000
    SCF energy          (wfn)     = -128.496357440992767
    Reference energy    (file100) = -128.496357440992597

    Input parameters:
    -----------------
    Wave function   =     CCSD_T
    Reference wfn   =     RHF
    Brueckner       =     No
    Memory (Mbytes) =     524.3
    Maxiter         =     50
    R_Convergence   =     1.0e-07
    E_Convergence   =     1.0e-06
    Restart         =     Yes
    DIIS            =     Yes
    AO Basis        =     NONE
    ABCD            =     NEW
    Cache Level     =     2
    Cache Type      =     LOW
    Print Level     =     1
    Num. of threads =     1
    # Amps to Print =     10
    Print MP2 Amps? =     No
    Analyze T2 Amps =     No
    Print Pair Ener =     No
    Local CC        =     No
    SCS-MP2         =     False
    SCSN-MP2        =     False
    SCS-CCSD        =     False

MP2 correlation energy -0.2069085625369744
                Solving CC Amplitude Equations
                ------------------------------
  Iter             Energy              RMS        T1Diag      D1Diag    New D1Diag    D2Diag
  ----     ---------------------    ---------   ----------  ----------  ----------   --------
     0        -0.206908562536974    0.000e+00    0.000000    0.000000    0.000000    0.082896
     1        -0.207266483459499    2.741e-02    0.008600    0.013687    0.013687    0.083768
     2        -0.209721898656129    7.137e-03    0.008261    0.013035    0.013035    0.085833
     3        -0.210243717688110    2.781e-03    0.009264    0.014636    0.014636    0.086501
     4        -0.210203216299840    3.505e-04    0.009374    0.014809    0.014809    0.086530
     5        -0.210194242082496    7.999e-05    0.009392    0.014842    0.014842    0.086525
     6        -0.210193950399641    1.723e-05    0.009396    0.014850    0.014850    0.086524
     7        -0.210193697990030    5.228e-06    0.009397    0.014852    0.014852    0.086524
     8        -0.210193605254931    1.078e-06    0.009397    0.014852    0.014852    0.086524
     9        -0.210193599495210    2.638e-07    0.009397    0.014852    0.014852    0.086524
    10        -0.210193595943982    6.202e-08    0.009397    0.014852    0.014852    0.086524

    Iterations converged.


    Largest TIA Amplitudes:
              2  24        -0.0128179944
              3  33        -0.0128179944
              1   2         0.0105779313
              1   3        -0.0078817428
              2  23         0.0068321464
              3  32         0.0068321464
              1   0        -0.0047865768
              0   2         0.0043745772
              1   1         0.0037574243
              0   1        -0.0036121404

    Largest TIjAb Amplitudes:
      2   2  27  27        -0.0334525752
      3   3  36  36        -0.0334525752
      1   1   8   8        -0.0303120101
      2   3  27  36        -0.0239097679
      3   2  36  27        -0.0239097679
      1   2   8  27        -0.0227302410
      2   1  27   8        -0.0227302410
      1   3   8  36        -0.0227302410
      3   1  36   8        -0.0227302410
      0   2  11  27        -0.0181802716

    SCF energy       (wfn)                    = -128.496357440992767
    Reference energy (file100)                = -128.496357440992597

    Opposite-spin MP2 correlation energy      =   -0.150163872290251
    Same-spin MP2 correlation energy          =   -0.056744690246724
    Singles MP2 correlation energy            =   -0.000000000000000
    MP2 correlation energy                    =   -0.206908562536974
      * MP2 total energy                      = -128.703266003529563

    Opposite-spin CCSD correlation energy     =   -0.157918184836554
    Same-spin CCSD correlation energy         =   -0.052275411107428
    Singles CCSD correlation energy           =    0.000000000000000
    CCSD correlation energy                   =   -0.210193595943982
      * CCSD total energy                     = -128.706551036936588

            **************************
            *                        *
            *        CCTRIPLES       *
            *                        *
            **************************


    Wave function   =    CCSD_T
    Reference wfn   =      RHF

    Nuclear Rep. energy (wfn)                =    0.000000000000000
    SCF energy          (wfn)                = -128.496357440992767
    Reference energy    (file100)            = -128.496357440992597
    CCSD energy         (file100)            =   -0.210193595943982
    Total CCSD energy   (file100)            = -128.706551036936588

    Number of ijk index combinations:               20
    Memory available in words               :        65536000
    Approx. words needed per explicit thread:           27436
    Number of threads for explicit ijk threading:    1

    MKL num_threads set to 1 for explicit threading.

    (T) energy                                =   -0.002798537557210
      * CCSD(T) total energy                  = -128.709349574493785


    Psi4 stopped on: Saturday, 18 November 2023 05:43PM
    Psi4 wall time for execution: 0:00:00.77


    -----------------------------------------------------------------------
          Psi4: An Open-Source Ab Initio Electronic Structure Package
                               Psi4 1.7a1.dev44 

                         Git: Rev {master} 2792bff 


    D. G. A. Smith, L. A. Burns, A. C. Simmonett, R. M. Parrish,
    M. C. Schieber, R. Galvelis, P. Kraus, H. Kruse, R. Di Remigio,
    A. Alenaizan, A. M. James, S. Lehtola, J. P. Misiewicz, M. Scheurer,
    R. A. Shaw, J. B. Schriber, Y. Xie, Z. L. Glick, D. A. Sirianni,
    J. S. O'Brien, J. M. Waldrop, A. Kumar, E. G. Hohenstein,
    B. P. Pritchard, B. R. Brooks, H. F. Schaefer III, A. Yu. Sokolov,
    K. Patkowski, A. E. DePrince III, U. Bozkaya, R. A. King,
    F. A. Evangelista, J. M. Turney, T. D. Crawford, C. D. Sherrill,
    J. Chem. Phys. 152(18) 184108 (2020). https://doi.org/10.1063/5.0006002

                            Additional Code Authors
    E. T. Seidl, C. L. Janssen, E. F. Valeev, M. L. Leininger,
    J. F. Gonthier, R. M. Richard, H. R. McAlexander, M. Saitow, X. Wang,
    P. Verma, M. H. Lechner, and A. Jiang

             Previous Authors, Complete List of Code Contributors,
                       and Citations for Specific Modules
    https://github.com/psi4/psi4/blob/master/codemeta.json
    https://github.com/psi4/psi4/graphs/contributors
    http://psicode.org/psi4manual/master/introduction.html#citing-psifour

    -----------------------------------------------------------------------


    Psi4 started on: Saturday, 18 November 2023 05:42PM

    Process ID: 3262685
    Host:       cs064.hpc.nyu.edu
    PSIDATADIR: /ext3/miniconda3/share/psi4
    Memory:     500.0 MiB
    Threads:    1
    
  ==> Input QCSchema <==

--------------------------------------------------------------------------
{'driver': 'energy',
 'extras': {'psiapi': True, 'wfn_qcvars_only': True},
 'id': None,
 'keywords': {'FREEZE_CORE': '1', 'function_kwargs': {}},
 'model': {'basis': 'aug-cc-pvdz', 'method': 'ccsd(t)'},
 'molecule': {'atom_labels': ['', ''],
              'atomic_numbers': [10, 10],
              'fix_com': True,
              'fix_orientation': True,
              'fragment_charges': [0.0, 0.0],
              'fragment_multiplicities': [1, 1],
              'fragments': [[0], [1]],
              'geometry': [0.0, 0.0, -3.3070207195511996, 0.0, 0.0, 3.3070207195511996],
              'mass_numbers': [20, 20],
              'masses': [19.9924401762, 19.9924401762],
              'molecular_charge': 0.0,
              'molecular_multiplicity': 1,
              'name': 'Ne2',
              'provenance': {'creator': 'QCElemental',
                             'routine': 'qcelemental.molparse.from_string',
                             'version': 'v0.25.1'},
              'real': [True, False],
              'schema_name': 'qcschema_molecule',
              'schema_version': 2,
              'symbols': ['Ne', 'Ne'],
              'validated': True},
 'protocols': {'stdout': True},
 'provenance': {'creator': 'QCElemental', 'routine': 'qcelemental.models.results', 'version': 'v0.25.1'},
 'schema_name': 'qcschema_input',
 'schema_version': 1}
--------------------------------------------------------------------------

Scratch directory: /tmp/

*** tstart() called on cs064.hpc.nyu.edu
*** at Sat Nov 18 17:43:22 2023

   => Loading Basis Set <=

    Name: AUG-CC-PVDZ
    Role: ORBITAL
    Keyword: BASIS
    atoms 1-2 entry NE         line   326 file /ext3/miniconda3/share/psi4/basis/aug-cc-pvdz.gbs 


         ---------------------------------------------------------
                                   SCF
               by Justin Turney, Rob Parrish, Andy Simmonett
                          and Daniel G. A. Smith
                              RHF Reference
                        1 Threads,    500 MiB Core
         ---------------------------------------------------------

  ==> Geometry <==

    Molecular point group: c2v
    Full point group: C_inf_v

    Geometry (in Bohr), charge = 0, multiplicity = 1:

       Center              X                  Y                   Z               Mass       
    ------------   -----------------  -----------------  -----------------  -----------------
         NE           0.000000000000     0.000000000000    -3.307020719551    19.992440176200
      Gh(NE)          0.000000000000     0.000000000000     3.307020719551    19.992440176200

  Running in c2v symmetry.

  Rotational constants: A = ************  B =      0.13767  C =      0.13767 [cm^-1]
  Rotational constants: A = ************  B =   4127.10294  C =   4127.10294 [MHz]
  Nuclear repulsion =    0.000000000000000

  Charge       = 0
  Multiplicity = 1
  Electrons    = 10
  Nalpha       = 5
  Nbeta        = 5

  ==> Algorithm <==

  SCF Algorithm Type is PK.
  DIIS enabled.
  MOM disabled.
  Fractional occupation disabled.
  Guess Type is SAD.
  Energy threshold   = 1.00e-08
  Density threshold  = 1.00e-08
  Integral threshold = 1.00e-12

  ==> Primary Basis <==

  Basis Set: AUG-CC-PVDZ
    Blend: AUG-CC-PVDZ
    Number of shells: 18
    Number of basis functions: 46
    Number of Cartesian functions: 50
    Spherical Harmonics?: true
    Max angular momentum: 2

  ==> Integral Setup <==

  Using in-core PK algorithm.
   Calculation information:
      Number of atoms:                   2
      Number of AO shells:              18
      Number of primitives:             50
      Number of atomic orbitals:        50
      Number of basis functions:        46

      Integral cutoff                 1.00e-12
      Number of threads:                 1

  Performing in-core PK
  Using 1169642 doubles for integral storage.
  We computed 11769 shell quartets total.
  Whereas there are 14706 unique shell quartets.

  ==> DiskJK: Disk-Based J/K Matrices <==

    J tasked:                  Yes
    K tasked:                  Yes
    wK tasked:                  No
    Memory [MiB]:              375
    Schwarz Cutoff:          1E-12

    OpenMP threads:              1

  Minimum eigenvalue in the overlap matrix is 8.4774284444E-02.
  Reciprocal condition number of the overlap matrix is 3.7150204617E-02.
    Using symmetric orthogonalization.

  ==> Pre-Iterations <==

  SCF Guess: Superposition of Atomic Densities via on-the-fly atomic UHF (no occupation information).

   -------------------------
    Irrep   Nso     Nmo    
   -------------------------
     A1        22      22 
     A2         4       4 
     B1        10      10 
     B2        10      10 
   -------------------------
    Total      46      46
   -------------------------

  ==> Iterations <==

                        Total Energy        Delta E     RMS |[F,P]|

   @RHF iter SAD:  -128.49634722923196   -1.28496e+02   0.00000e+00 
   @RHF iter   1:  -128.49635684127560   -9.61204e-06   5.63686e-05 DIIS
   @RHF iter   2:  -128.49635730738598   -4.66110e-07   2.81110e-05 DIIS
   @RHF iter   3:  -128.49635744082940   -1.33443e-07   5.62865e-07 DIIS
   @RHF iter   4:  -128.49635744099157   -1.62174e-10   5.81914e-08 DIIS
   @RHF iter   5:  -128.49635744099260   -1.02318e-12   4.02003e-09 DIIS
  Energy and wave function converged.


  ==> Post-Iterations <==

    Orbital Energies [Eh]
    ---------------------

    Doubly Occupied:                                                      

       1A1   -32.794950     2A1    -1.940414     3A1    -0.853033  
       1B1    -0.853027     1B2    -0.853027  

    Virtual:                                                              

       4A1     0.157218     5A1     0.234907     2B2     0.243519  
       2B1     0.243519     6A1     0.293432     3B2     0.309148  
       3B1     0.309148     7A1     0.417173     8A1     1.043529  
       4B2     1.307563     4B1     1.307563     9A1     1.334187  
      10A1     1.757699     1A2     1.757699     5B1     1.758527  
       5B2     1.758527    11A1     1.769813     6B2     1.963481  
       6B1     1.963481    12A1     1.982370    13A1     2.123621  
       2A2     2.123621     7B1     2.125291     7B2     2.125291  
      14A1     2.145605    15A1     2.778672    16A1     4.654904  
      17A1     6.372486     3A2     6.372486     8B1     6.372776  
       8B2     6.372776    18A1     6.377882     9B2     8.944711  
       9B1     8.944711    19A1     8.955359    20A1     8.956244  
       4A2     8.956244    10B2     8.956603    10B1     8.956603  
      21A1     8.982368    22A1    53.408106  

    Final Occupation by Irrep:
             A1    A2    B1    B2 
    DOCC [     3,    0,    1,    1 ]
    NA   [     3,    0,    1,    1 ]
    NB   [     3,    0,    1,    1 ]

  @RHF Final Energy:  -128.49635744099260

   => Energetics <=

    Nuclear Repulsion Energy =              0.0000000000000000
    One-Electron Energy =                -182.4038126849776233
    Two-Electron Energy =                  53.9074552439850123
    Total Energy =                       -128.4963574409925968

Computation Completed


Properties will be evaluated at   0.000000,   0.000000,   0.000000 [a0]

Properties computed using the SCF density matrix


 Multipole Moments:

 ------------------------------------------------------------------------------------
     Multipole            Electronic (a.u.)      Nuclear  (a.u.)        Total (a.u.)
 ------------------------------------------------------------------------------------

 L = 1.  Multiply by 2.5417464519 to convert [e a0] to [Debye]
 Dipole X            :          0.0000000            0.0000000            0.0000000
 Dipole Y            :          0.0000000            0.0000000            0.0000000
 Dipole Z            :         33.0700636          -33.0702072           -0.0001436
 Magnitude           :                                                    0.0001436

 ------------------------------------------------------------------------------------

*** tstop() called on cs064.hpc.nyu.edu at Sat Nov 18 17:43:22 2023
Module time:
	user time   =       0.25 seconds =       0.00 minutes
	system time =       0.00 seconds =       0.00 minutes
	total time  =          0 seconds =       0.00 minutes
Total time:
	user time   =      11.52 seconds =       0.19 minutes
	system time =       3.26 seconds =       0.05 minutes
	total time  =         74 seconds =       1.23 minutes
 MINTS: Wrapper to libmints.
   by Justin Turney

   Calculation information:
      Number of threads:                 1
      Number of atoms:                   2
      Number of AO shells:              18
      Number of SO shells:              18
      Number of primitives:             50
      Number of atomic orbitals:        50
      Number of basis functions:        46

      Number of irreps:                  4
      Integral cutoff                 1.00e-12
      Number of functions per irrep: [  22    4   10   10 ]

 OEINTS: Overlap, kinetic, potential, dipole, and quadrupole integrals
         stored in file 35.

      Computing two-electron integrals...done
      Computed 93467 non-zero two-electron integrals.
        Stored in file 33.


*** tstart() called on cs064.hpc.nyu.edu
*** at Sat Nov 18 17:43:22 2023


	Wfn Parameters:
	--------------------
	Wavefunction         = CCSD_T
	Number of irreps     = 4
	Number of MOs        = 46
	Number of active MOs = 45
	AO-Basis             = NONE
	Semicanonical        = false
	Reference            = RHF
	Print Level          = 1

	IRREP	# MOs	# FZDC	# DOCC	# SOCC	# VIRT	# FZVR
	-----	-----	------	------	------	------	------
	 A1	   22	    1	    2	    0	    19	    0
	 A2	   4	    0	    0	    0	    4	    0
	 B1	   10	    0	    1	    0	    9	    0
	 B2	   10	    0	    1	    0	    9	    0
	Transforming integrals...
	IWL integrals will be deleted.
	(OO|OO)...
	Presorting SO-basis two-electron integrals.
	Sorting File: SO Ints (nn|nn) nbuckets = 1
	Constructing frozen core operators
	Starting first half-transformation.
	Sorting half-transformed integrals.
	First half integral transformation complete.
	Starting second half-transformation.
	Two-electron integral transformation complete.
	(OO|OV)...
	Starting second half-transformation.
	Two-electron integral transformation complete.
	(OO|VV)...
	Starting second half-transformation.
	Two-electron integral transformation complete.
	(OV|OO)...
	Starting first half-transformation.
	Sorting half-transformed integrals.
	First half integral transformation complete.
	Starting second half-transformation.
	Two-electron integral transformation complete.
	(OV|OV)...
	Starting second half-transformation.
	Two-electron integral transformation complete.
	(OV|VV)...
	Starting second half-transformation.
	Two-electron integral transformation complete.
	(VV|OO)...
	Starting first half-transformation.
	Sorting half-transformed integrals.
	First half integral transformation complete.
	Starting second half-transformation.
	Two-electron integral transformation complete.
	(VV|OV)...
	Starting second half-transformation.
	Two-electron integral transformation complete.
	(VV|VV)...
	Starting second half-transformation.
	Two-electron integral transformation complete.
	Frozen core energy     =    -93.84889919265970

	Size of irrep 0 of <ab|cd> integrals:      0.291 (MW) /      2.324 (MB)
	Size of irrep 1 of <ab|cd> integrals:      0.099 (MW) /      0.789 (MB)
	Size of irrep 2 of <ab|cd> integrals:      0.171 (MW) /      1.371 (MB)
	Size of irrep 3 of <ab|cd> integrals:      0.171 (MW) /      1.371 (MB)
	Total:                                     0.732 (MW) /      5.855 (MB)

	Size of irrep 0 of <ia|bc> integrals:      0.030 (MW) /      0.241 (MB)
	Size of irrep 1 of <ia|bc> integrals:      0.008 (MW) /      0.065 (MB)
	Size of irrep 2 of <ia|bc> integrals:      0.017 (MW) /      0.136 (MB)
	Size of irrep 3 of <ia|bc> integrals:      0.017 (MW) /      0.136 (MB)
	Total:                                     0.072 (MW) /      0.578 (MB)

	Size of irrep 0 of tijab amplitudes:       0.003 (MW) /      0.026 (MB)
	Size of irrep 1 of tijab amplitudes:       0.001 (MW) /      0.005 (MB)
	Size of irrep 2 of tijab amplitudes:       0.002 (MW) /      0.013 (MB)
	Size of irrep 3 of tijab amplitudes:       0.002 (MW) /      0.013 (MB)
	Total:                                     0.007 (MW) /      0.057 (MB)

	Nuclear Rep. energy          =      0.00000000000000
	SCF energy                   =   -128.49635744099260
	One-electron energy          =    -60.29591428672200
	Two-electron energy          =     25.64845603838907
	Reference energy             =   -128.49635744099263

*** tstop() called on cs064.hpc.nyu.edu at Sat Nov 18 17:43:22 2023
Module time:
	user time   =       0.05 seconds =       0.00 minutes
	system time =       0.04 seconds =       0.00 minutes
	total time  =          0 seconds =       0.00 minutes
Total time:
	user time   =      11.68 seconds =       0.19 minutes
	system time =       3.30 seconds =       0.06 minutes
	total time  =         74 seconds =       1.23 minutes
            **************************
            *                        *
            *        CCENERGY        *
            *                        *
            **************************

    Nuclear Rep. energy (wfn)     =    0.000000000000000
    SCF energy          (wfn)     = -128.496357440992597
    Reference energy    (file100) = -128.496357440992625

    Input parameters:
    -----------------
    Wave function   =     CCSD_T
    Reference wfn   =     RHF
    Brueckner       =     No
    Memory (Mbytes) =     524.3
    Maxiter         =     50
    R_Convergence   =     1.0e-07
    E_Convergence   =     1.0e-06
    Restart         =     Yes
    DIIS            =     Yes
    AO Basis        =     NONE
    ABCD            =     NEW
    Cache Level     =     2
    Cache Type      =     LOW
    Print Level     =     1
    Num. of threads =     1
    # Amps to Print =     10
    Print MP2 Amps? =     No
    Analyze T2 Amps =     No
    Print Pair Ener =     No
    Local CC        =     No
    SCS-MP2         =     False
    SCSN-MP2        =     False
    SCS-CCSD        =     False

MP2 correlation energy -0.2069085625369740
                Solving CC Amplitude Equations
                ------------------------------
  Iter             Energy              RMS        T1Diag      D1Diag    New D1Diag    D2Diag
  ----     ---------------------    ---------   ----------  ----------  ----------   --------
     0        -0.206908562536974    0.000e+00    0.000000    0.000000    0.000000    0.082896
     1        -0.207266483459498    2.741e-02    0.008600    0.013687    0.013687    0.083768
     2        -0.209721898656129    7.137e-03    0.008261    0.013035    0.013035    0.085833
     3        -0.210243717688109    2.781e-03    0.009264    0.014636    0.014636    0.086501
     4        -0.210203216299839    3.505e-04    0.009374    0.014809    0.014809    0.086530
     5        -0.210194242082495    7.999e-05    0.009392    0.014842    0.014842    0.086525
     6        -0.210193950399640    1.723e-05    0.009396    0.014850    0.014850    0.086524
     7        -0.210193697990029    5.228e-06    0.009397    0.014852    0.014852    0.086524
     8        -0.210193605254931    1.078e-06    0.009397    0.014852    0.014852    0.086524
     9        -0.210193599495210    2.638e-07    0.009397    0.014852    0.014852    0.086524
    10        -0.210193595943981    6.202e-08    0.009397    0.014852    0.014852    0.086524

    Iterations converged.


    Largest TIA Amplitudes:
              2  24        -0.0128179944
              3  33        -0.0128179944
              1   2        -0.0105779313
              1   3         0.0078817428
              2  23        -0.0068321464
              3  32        -0.0068321464
              1   0         0.0047865768
              0   2         0.0043745772
              1   1         0.0037574243
              0   1         0.0036121404

    Largest TIjAb Amplitudes:
      2   2  27  27        -0.0334525752
      3   3  36  36        -0.0334525752
      1   1   8   8        -0.0303120101
      2   3  27  36        -0.0239097679
      3   2  36  27        -0.0239097679
      1   2   8  27         0.0227302410
      2   1  27   8         0.0227302410
      1   3   8  36         0.0227302410
      3   1  36   8         0.0227302410
      0   2  11  27        -0.0181802716

    SCF energy       (wfn)                    = -128.496357440992597
    Reference energy (file100)                = -128.496357440992625

    Opposite-spin MP2 correlation energy      =   -0.150163872290250
    Same-spin MP2 correlation energy          =   -0.056744690246724
    Singles MP2 correlation energy            =   -0.000000000000000
    MP2 correlation energy                    =   -0.206908562536974
      * MP2 total energy                      = -128.703266003529592

    Opposite-spin CCSD correlation energy     =   -0.157918184836554
    Same-spin CCSD correlation energy         =   -0.052275411107428
    Singles CCSD correlation energy           =    0.000000000000000
    CCSD correlation energy                   =   -0.210193595943981
      * CCSD total energy                     = -128.706551036936617

            **************************
            *                        *
            *        CCTRIPLES       *
            *                        *
            **************************


    Wave function   =    CCSD_T
    Reference wfn   =      RHF

    Nuclear Rep. energy (wfn)                =    0.000000000000000
    SCF energy          (wfn)                = -128.496357440992597
    Reference energy    (file100)            = -128.496357440992625
    CCSD energy         (file100)            =   -0.210193595943981
    Total CCSD energy   (file100)            = -128.706551036936617

    Number of ijk index combinations:               20
    Memory available in words               :        65536000
    Approx. words needed per explicit thread:           27436
    Number of threads for explicit ijk threading:    1

    MKL num_threads set to 1 for explicit threading.

    (T) energy                                =   -0.002798537557210
      * CCSD(T) total energy                  = -128.709349574493814


    Psi4 stopped on: Saturday, 18 November 2023 05:43PM
    Psi4 wall time for execution: 0:00:00.76


    -----------------------------------------------------------------------
          Psi4: An Open-Source Ab Initio Electronic Structure Package
                               Psi4 1.7a1.dev44 

                         Git: Rev {master} 2792bff 


    D. G. A. Smith, L. A. Burns, A. C. Simmonett, R. M. Parrish,
    M. C. Schieber, R. Galvelis, P. Kraus, H. Kruse, R. Di Remigio,
    A. Alenaizan, A. M. James, S. Lehtola, J. P. Misiewicz, M. Scheurer,
    R. A. Shaw, J. B. Schriber, Y. Xie, Z. L. Glick, D. A. Sirianni,
    J. S. O'Brien, J. M. Waldrop, A. Kumar, E. G. Hohenstein,
    B. P. Pritchard, B. R. Brooks, H. F. Schaefer III, A. Yu. Sokolov,
    K. Patkowski, A. E. DePrince III, U. Bozkaya, R. A. King,
    F. A. Evangelista, J. M. Turney, T. D. Crawford, C. D. Sherrill,
    J. Chem. Phys. 152(18) 184108 (2020). https://doi.org/10.1063/5.0006002

                            Additional Code Authors
    E. T. Seidl, C. L. Janssen, E. F. Valeev, M. L. Leininger,
    J. F. Gonthier, R. M. Richard, H. R. McAlexander, M. Saitow, X. Wang,
    P. Verma, M. H. Lechner, and A. Jiang

             Previous Authors, Complete List of Code Contributors,
                       and Citations for Specific Modules
    https://github.com/psi4/psi4/blob/master/codemeta.json
    https://github.com/psi4/psi4/graphs/contributors
    http://psicode.org/psi4manual/master/introduction.html#citing-psifour

    -----------------------------------------------------------------------


    Psi4 started on: Saturday, 18 November 2023 05:42PM

    Process ID: 3262685
    Host:       cs064.hpc.nyu.edu
    PSIDATADIR: /ext3/miniconda3/share/psi4
    Memory:     500.0 MiB
    Threads:    1
    
  ==> Input QCSchema <==

--------------------------------------------------------------------------
{'driver': 'energy',
 'extras': {'psiapi': True, 'wfn_qcvars_only': True},
 'id': None,
 'keywords': {'FREEZE_CORE': '1', 'function_kwargs': {}},
 'model': {'basis': 'aug-cc-pvdz', 'method': 'ccsd(t)'},
 'molecule': {'atom_labels': ['', ''],
              'atomic_numbers': [10, 10],
              'fix_com': True,
              'fix_orientation': True,
              'fragment_charges': [0.0, 0.0],
              'fragment_multiplicities': [1, 1],
              'fragments': [[0], [1]],
              'geometry': [0.0, 0.0, -3.3070207195512, 0.0, 0.0, 3.3070207195512],
              'mass_numbers': [20, 20],
              'masses': [19.9924401762, 19.9924401762],
              'molecular_charge': 0.0,
              'molecular_multiplicity': 1,
              'name': 'Ne2',
              'provenance': {'creator': 'QCElemental',
                             'routine': 'qcelemental.molparse.from_string',
                             'version': 'v0.25.1'},
              'real': [True, True],
              'schema_name': 'qcschema_molecule',
              'schema_version': 2,
              'symbols': ['Ne', 'Ne'],
              'validated': True},
 'protocols': {'stdout': True},
 'provenance': {'creator': 'QCElemental', 'routine': 'qcelemental.models.results', 'version': 'v0.25.1'},
 'schema_name': 'qcschema_input',
 'schema_version': 1}
--------------------------------------------------------------------------

Scratch directory: /tmp/

*** tstart() called on cs064.hpc.nyu.edu
*** at Sat Nov 18 17:43:22 2023

   => Loading Basis Set <=

    Name: AUG-CC-PVDZ
    Role: ORBITAL
    Keyword: BASIS
    atoms 1-2 entry NE         line   326 file /ext3/miniconda3/share/psi4/basis/aug-cc-pvdz.gbs 


         ---------------------------------------------------------
                                   SCF
               by Justin Turney, Rob Parrish, Andy Simmonett
                          and Daniel G. A. Smith
                              RHF Reference
                        1 Threads,    500 MiB Core
         ---------------------------------------------------------

  ==> Geometry <==

    Molecular point group: d2h
    Full point group: D_inf_h

    Geometry (in Bohr), charge = 0, multiplicity = 1:

       Center              X                  Y                   Z               Mass       
    ------------   -----------------  -----------------  -----------------  -----------------
         NE           0.000000000000     0.000000000000    -3.307020719551    19.992440176200
         NE           0.000000000000     0.000000000000     3.307020719551    19.992440176200

  Running in d2h symmetry.

  Rotational constants: A = ************  B =      0.13767  C =      0.13767 [cm^-1]
  Rotational constants: A = ************  B =   4127.10294  C =   4127.10294 [MHz]
  Nuclear repulsion =   15.119348876285713

  Charge       = 0
  Multiplicity = 1
  Electrons    = 20
  Nalpha       = 10
  Nbeta        = 10

  ==> Algorithm <==

  SCF Algorithm Type is PK.
  DIIS enabled.
  MOM disabled.
  Fractional occupation disabled.
  Guess Type is SAD.
  Energy threshold   = 1.00e-08
  Density threshold  = 1.00e-08
  Integral threshold = 1.00e-12

  ==> Primary Basis <==

  Basis Set: AUG-CC-PVDZ
    Blend: AUG-CC-PVDZ
    Number of shells: 18
    Number of basis functions: 46
    Number of Cartesian functions: 50
    Spherical Harmonics?: true
    Max angular momentum: 2

  ==> Integral Setup <==

  Using in-core PK algorithm.
   Calculation information:
      Number of atoms:                   2
      Number of AO shells:              18
      Number of primitives:             50
      Number of atomic orbitals:        50
      Number of basis functions:        46

      Integral cutoff                 1.00e-12
      Number of threads:                 1

  Performing in-core PK
  Using 1169642 doubles for integral storage.
  We computed 11769 shell quartets total.
  Whereas there are 14706 unique shell quartets.

  ==> DiskJK: Disk-Based J/K Matrices <==

    J tasked:                  Yes
    K tasked:                  Yes
    wK tasked:                  No
    Memory [MiB]:              375
    Schwarz Cutoff:          1E-12

    OpenMP threads:              1

  Minimum eigenvalue in the overlap matrix is 8.6766875662E-02.
  Reciprocal condition number of the overlap matrix is 3.8397423518E-02.
    Using symmetric orthogonalization.

  ==> Pre-Iterations <==

  SCF Guess: Superposition of Atomic Densities via on-the-fly atomic UHF (no occupation information).

   -------------------------
    Irrep   Nso     Nmo    
   -------------------------
     Ag        11      11 
     B1g        2       2 
     B2g        5       5 
     B3g        5       5 
     Au         2       2 
     B1u       11      11 
     B2u        5       5 
     B3u        5       5 
   -------------------------
    Total      46      46
   -------------------------

  ==> Iterations <==

                        Total Energy        Delta E     RMS |[F,P]|

   @RHF iter SAD:  -256.99273877971979   -2.56993e+02   0.00000e+00 
   @RHF iter   1:  -256.99269990538772    3.88743e-05   1.14270e-04 DIIS/ADIIS
   @RHF iter   2:  -256.99270084723179   -9.41844e-07   5.65590e-05 DIIS
   @RHF iter   3:  -256.99270111782533   -2.70594e-07   1.06667e-06 DIIS
   @RHF iter   4:  -256.99270111810807   -2.82739e-10   1.55855e-07 DIIS
   @RHF iter   5:  -256.99270111811381   -5.74119e-12   2.01779e-08 DIIS
   @RHF iter   6:  -256.99270111811404   -2.27374e-13   2.43071e-09 DIIS
  Energy and wave function converged.


  ==> Post-Iterations <==

    Orbital Energies [Eh]
    ---------------------

    Doubly Occupied:                                                      

       1B1u  -32.794926     1Ag   -32.794924     2Ag    -1.940467  
       2B1u   -1.940333     3Ag    -0.854365     1B3u   -0.853174  
       1B2u   -0.853174     1B3g   -0.852846     1B2g   -0.852846  
       3B1u   -0.851690  

    Virtual:                                                              

       4Ag     0.234544     2B2u    0.268400     2B3u    0.268400  
       4B1u    0.276079     5Ag     0.306283     2B3g    0.323957  
       2B2g    0.323957     5B1u    0.464460     6Ag     1.756087  
       3B2u    1.757299     3B3u    1.757299     1B1g    1.757696  
       7Ag     1.757696     6B1u    1.757717     1Au     1.757717  
       3B2g    1.757753     3B3g    1.757753     7B1u    1.758302  
       4B2u    1.949216     4B3u    1.949216     4B3g    1.980787  
       4B2g    1.980787     8Ag     2.000778     8B1u    2.001285  
       9Ag     2.717750     9B1u    2.841267     2B1g    6.372498  
      10Ag     6.372498    10B1u    6.372506     2Au     6.372506  
       5B2u    6.372674     5B3u    6.372674     5B3g    6.372988  
       5B2g    6.372988    11Ag     6.374094    11B1u    6.382461  

    Final Occupation by Irrep:
             Ag   B1g   B2g   B3g    Au   B1u   B2u   B3u 
    DOCC [     3,    0,    1,    1,    0,    3,    1,    1 ]
    NA   [     3,    0,    1,    1,    0,    3,    1,    1 ]
    NB   [     3,    0,    1,    1,    0,    3,    1,    1 ]

  @RHF Final Energy:  -256.99270111811404

   => Energetics <=

    Nuclear Repulsion Energy =             15.1193488762857129
    One-Electron Energy =                -395.0466086346313546
    Two-Electron Energy =                 122.9345586402316428
    Total Energy =                       -256.9927011181140415

Computation Completed


Properties will be evaluated at   0.000000,   0.000000,   0.000000 [a0]

Properties computed using the SCF density matrix


 Multipole Moments:

 ------------------------------------------------------------------------------------
     Multipole            Electronic (a.u.)      Nuclear  (a.u.)        Total (a.u.)
 ------------------------------------------------------------------------------------

 L = 1.  Multiply by 2.5417464519 to convert [e a0] to [Debye]
 Dipole X            :          0.0000000            0.0000000            0.0000000
 Dipole Y            :          0.0000000            0.0000000            0.0000000
 Dipole Z            :          0.0000000            0.0000000            0.0000000
 Magnitude           :                                                    0.0000000

 ------------------------------------------------------------------------------------

*** tstop() called on cs064.hpc.nyu.edu at Sat Nov 18 17:43:23 2023
Module time:
	user time   =       0.28 seconds =       0.00 minutes
	system time =       0.01 seconds =       0.00 minutes
	total time  =          1 seconds =       0.02 minutes
Total time:
	user time   =      12.12 seconds =       0.20 minutes
	system time =       3.43 seconds =       0.06 minutes
	total time  =         75 seconds =       1.25 minutes
 MINTS: Wrapper to libmints.
   by Justin Turney

   Calculation information:
      Number of threads:                 1
      Number of atoms:                   2
      Number of AO shells:              18
      Number of SO shells:               9
      Number of primitives:             50
      Number of atomic orbitals:        50
      Number of basis functions:        46

      Number of irreps:                  8
      Integral cutoff                 1.00e-12
      Number of functions per irrep: [  11    2    5    5    2   11    5    5 ]

 OEINTS: Overlap, kinetic, potential, dipole, and quadrupole integrals
         stored in file 35.

      Computing two-electron integrals...done
      Computed 69839 non-zero two-electron integrals.
        Stored in file 33.


*** tstart() called on cs064.hpc.nyu.edu
*** at Sat Nov 18 17:43:23 2023


	Wfn Parameters:
	--------------------
	Wavefunction         = CCSD_T
	Number of irreps     = 8
	Number of MOs        = 46
	Number of active MOs = 44
	AO-Basis             = NONE
	Semicanonical        = false
	Reference            = RHF
	Print Level          = 1

	IRREP	# MOs	# FZDC	# DOCC	# SOCC	# VIRT	# FZVR
	-----	-----	------	------	------	------	------
	 Ag	   11	    1	    2	    0	    8	    0
	 B1g	   2	    0	    0	    0	    2	    0
	 B2g	   5	    0	    1	    0	    4	    0
	 B3g	   5	    0	    1	    0	    4	    0
	 Au	   2	    0	    0	    0	    2	    0
	 B1u	   11	    1	    2	    0	    8	    0
	 B2u	   5	    0	    1	    0	    4	    0
	 B3u	   5	    0	    1	    0	    4	    0
	Transforming integrals...
	IWL integrals will be deleted.
	(OO|OO)...
	Presorting SO-basis two-electron integrals.
	Sorting File: SO Ints (nn|nn) nbuckets = 1
	Constructing frozen core operators
	Starting first half-transformation.
	Sorting half-transformed integrals.
	First half integral transformation complete.
	Starting second half-transformation.
	Two-electron integral transformation complete.
	(OO|OV)...
	Starting second half-transformation.
	Two-electron integral transformation complete.
	(OO|VV)...
	Starting second half-transformation.
	Two-electron integral transformation complete.
	(OV|OO)...
	Starting first half-transformation.
	Sorting half-transformed integrals.
	First half integral transformation complete.
	Starting second half-transformation.
	Two-electron integral transformation complete.
	(OV|OV)...
	Starting second half-transformation.
	Two-electron integral transformation complete.
	(OV|VV)...
	Starting second half-transformation.
	Two-electron integral transformation complete.
	(VV|OO)...
	Starting first half-transformation.
	Sorting half-transformed integrals.
	First half integral transformation complete.
	Starting second half-transformation.
	Two-electron integral transformation complete.
	(VV|OV)...
	Starting second half-transformation.
	Two-electron integral transformation complete.
	(VV|VV)...
	Starting second half-transformation.
	Two-electron integral transformation complete.
	Frozen core energy     =   -193.14076444189035

	Size of irrep 0 of <ab|cd> integrals:      0.040 (MW) /      0.320 (MB)
	Size of irrep 1 of <ab|cd> integrals:      0.016 (MW) /      0.131 (MB)
	Size of irrep 2 of <ab|cd> integrals:      0.026 (MW) /      0.205 (MB)
	Size of irrep 3 of <ab|cd> integrals:      0.026 (MW) /      0.205 (MB)
	Size of irrep 4 of <ab|cd> integrals:      0.016 (MW) /      0.131 (MB)
	Size of irrep 5 of <ab|cd> integrals:      0.040 (MW) /      0.320 (MB)
	Size of irrep 6 of <ab|cd> integrals:      0.026 (MW) /      0.205 (MB)
	Size of irrep 7 of <ab|cd> integrals:      0.026 (MW) /      0.205 (MB)
	Total:                                     0.215 (MW) /      1.721 (MB)

	Size of irrep 0 of <ia|bc> integrals:      0.010 (MW) /      0.077 (MB)
	Size of irrep 1 of <ia|bc> integrals:      0.003 (MW) /      0.025 (MB)
	Size of irrep 2 of <ia|bc> integrals:      0.006 (MW) /      0.046 (MB)
	Size of irrep 3 of <ia|bc> integrals:      0.006 (MW) /      0.046 (MB)
	Size of irrep 4 of <ia|bc> integrals:      0.003 (MW) /      0.025 (MB)
	Size of irrep 5 of <ia|bc> integrals:      0.010 (MW) /      0.077 (MB)
	Size of irrep 6 of <ia|bc> integrals:      0.006 (MW) /      0.046 (MB)
	Size of irrep 7 of <ia|bc> integrals:      0.006 (MW) /      0.046 (MB)
	Total:                                     0.048 (MW) /      0.387 (MB)

	Size of irrep 0 of tijab amplitudes:       0.002 (MW) /      0.019 (MB)
	Size of irrep 1 of tijab amplitudes:       0.001 (MW) /      0.004 (MB)
	Size of irrep 2 of tijab amplitudes:       0.001 (MW) /      0.010 (MB)
	Size of irrep 3 of tijab amplitudes:       0.001 (MW) /      0.010 (MB)
	Size of irrep 4 of tijab amplitudes:       0.001 (MW) /      0.004 (MB)
	Size of irrep 5 of tijab amplitudes:       0.002 (MW) /      0.019 (MB)
	Size of irrep 6 of tijab amplitudes:       0.001 (MW) /      0.010 (MB)
	Size of irrep 7 of tijab amplitudes:       0.001 (MW) /      0.010 (MB)
	Total:                                     0.011 (MW) /      0.088 (MB)

	Nuclear Rep. energy          =     15.11934887628571
	SCF energy                   =   -256.99270111811404
	One-electron energy          =   -139.94477909371139
	Two-electron energy          =     60.97349354120060
	Reference energy             =   -256.99270111811541

*** tstop() called on cs064.hpc.nyu.edu at Sat Nov 18 17:43:23 2023
Module time:
	user time   =       0.06 seconds =       0.00 minutes
	system time =       0.03 seconds =       0.00 minutes
	total time  =          0 seconds =       0.00 minutes
Total time:
	user time   =      12.24 seconds =       0.20 minutes
	system time =       3.46 seconds =       0.06 minutes
	total time  =         75 seconds =       1.25 minutes
            **************************
            *                        *
            *        CCENERGY        *
            *                        *
            **************************

    Nuclear Rep. energy (wfn)     =   15.119348876285713
    SCF energy          (wfn)     = -256.992701118114041
    Reference energy    (file100) = -256.992701118115406

    Input parameters:
    -----------------
    Wave function   =     CCSD_T
    Reference wfn   =     RHF
    Brueckner       =     No
    Memory (Mbytes) =     524.3
    Maxiter         =     50
    R_Convergence   =     1.0e-07
    E_Convergence   =     1.0e-06
    Restart         =     Yes
    DIIS            =     Yes
    AO Basis        =     NONE
    ABCD            =     NEW
    Cache Level     =     2
    Cache Type      =     LOW
    Print Level     =     1
    Num. of threads =     1
    # Amps to Print =     10
    Print MP2 Amps? =     No
    Analyze T2 Amps =     No
    Print Pair Ener =     No
    Local CC        =     No
    SCS-MP2         =     False
    SCSN-MP2        =     False
    SCS-CCSD        =     False

MP2 correlation energy -0.4138679681435496
                Solving CC Amplitude Equations
                ------------------------------
  Iter             Energy              RMS        T1Diag      D1Diag    New D1Diag    D2Diag
  ----     ---------------------    ---------   ----------  ----------  ----------   --------
     0        -0.413867968143550    0.000e+00    0.000000    0.000000    0.000000    0.083049
     1        -0.414583346896674    3.878e-02    0.008602    0.014938    0.014938    0.083901
     2        -0.419497075957935    1.009e-02    0.008264    0.014241    0.014241    0.086003
     3        -0.420540913711075    3.933e-03    0.009267    0.016075    0.016075    0.086678
     4        -0.420459675595331    4.944e-04    0.009377    0.016270    0.016270    0.086710
     5        -0.420441817215408    1.112e-04    0.009396    0.016317    0.016317    0.086706
     6        -0.420441262541377    2.321e-05    0.009400    0.016326    0.016326    0.086705
     7        -0.420440734590049    6.549e-06    0.009401    0.016328    0.016328    0.086704
     8        -0.420440565466368    1.225e-06    0.009401    0.016329    0.016329    0.086704
     9        -0.420440562066844    2.893e-07    0.009401    0.016329    0.016329    0.086704
    10        -0.420440555023403    7.072e-08    0.009401    0.016329    0.016329    0.086704

    Iterations converged.


    Largest TIA Amplitudes:
              6  28        -0.0149065510
              7  32        -0.0149065510
              2  10        -0.0141533322
              3  14        -0.0141533322
              1   1         0.0124072224
              1   0        -0.0101828555
              5  21         0.0091456491
              5  20        -0.0090388852
              0   0         0.0056282977
              4  20         0.0052110223

    Largest TIjAb Amplitudes:
      2   2  34  34        -0.0169986862
      3   3  30  30        -0.0169986862
      6   6  30  30        -0.0169768197
      7   7  34  34        -0.0169768197
      2   7  12  34        -0.0167498467
      3   6  16  30        -0.0167498467
      6   3  30  16        -0.0167498467
      7   2  34  12        -0.0167498467
      2   7  34  12        -0.0167459776
      3   6  30  16        -0.0167459776

    SCF energy       (wfn)                    = -256.992701118114041
    Reference energy (file100)                = -256.992701118115406

    Opposite-spin MP2 correlation energy      =   -0.300352000097328
    Same-spin MP2 correlation energy          =   -0.113515968046221
    Singles MP2 correlation energy            =   -0.000000000000000
    MP2 correlation energy                    =   -0.413867968143550
      * MP2 total energy                      = -257.406569086258969

    Opposite-spin CCSD correlation energy     =   -0.315860426162279
    Same-spin CCSD correlation energy         =   -0.104580128861124
    Singles CCSD correlation energy           =    0.000000000000000
    CCSD correlation energy                   =   -0.420440555023403
      * CCSD total energy                     = -257.413141673138796

            **************************
            *                        *
            *        CCTRIPLES       *
            *                        *
            **************************


    Wave function   =    CCSD_T
    Reference wfn   =      RHF

    Nuclear Rep. energy (wfn)                =   15.119348876285713
    SCF energy          (wfn)                = -256.992701118114041
    Reference energy    (file100)            = -256.992701118115406
    CCSD energy         (file100)            =   -0.420440555023403
    Total CCSD energy   (file100)            = -257.413141673138796

    Number of ijk index combinations:              120
    Memory available in words               :        65536000
    Approx. words needed per explicit thread:            2048
    Number of threads for explicit ijk threading:    1

    MKL num_threads set to 1 for explicit threading.

    (T) energy                                =   -0.005602284504163
      * CCSD(T) total energy                  = -257.418743957642960


    Psi4 stopped on: Saturday, 18 November 2023 05:43PM
    Psi4 wall time for execution: 0:00:00.82


  //>>>>>>>>>>>>>>>>>>>>>>>>>>>>>>>>>>>//
  //          ManyBody Results         //
  //<<<<<<<<<<<<<<<<<<<<<<<<<<<<<<<<<<<//


   ==> N-Body: Counterpoise Corrected (CP) energies <==

        n-Body     Total Energy            Interaction Energy                          N-body Contribution to Interaction Energy
                   [Eh]                    [Eh]                  [kcal/mol]            [Eh]                  [kcal/mol]
             1  N/A                         0.000000000000        0.000000000000        0.000000000000        0.000000000000
  FULL/RTN   2  N/A                        -0.000044808655       -0.028117855764       -0.000044808655       -0.028117855764


Scratch directory: /tmp/

  //>>>>>>>>>>>>>>>>>>>>>>>>>>>>>>>>>>>>>//
  // ManyBody Setup: N-Body Levels [1, 2]//
  //<<<<<<<<<<<<<<<<<<<<<<<<<<<<<<<<<<<<<//

        Number of 1-body computations:     2
        Number of 2-body computations:     1

    -----------------------------------------------------------------------
          Psi4: An Open-Source Ab Initio Electronic Structure Package
                               Psi4 1.7a1.dev44 

                         Git: Rev {master} 2792bff 


    D. G. A. Smith, L. A. Burns, A. C. Simmonett, R. M. Parrish,
    M. C. Schieber, R. Galvelis, P. Kraus, H. Kruse, R. Di Remigio,
    A. Alenaizan, A. M. James, S. Lehtola, J. P. Misiewicz, M. Scheurer,
    R. A. Shaw, J. B. Schriber, Y. Xie, Z. L. Glick, D. A. Sirianni,
    J. S. O'Brien, J. M. Waldrop, A. Kumar, E. G. Hohenstein,
    B. P. Pritchard, B. R. Brooks, H. F. Schaefer III, A. Yu. Sokolov,
    K. Patkowski, A. E. DePrince III, U. Bozkaya, R. A. King,
    F. A. Evangelista, J. M. Turney, T. D. Crawford, C. D. Sherrill,
    J. Chem. Phys. 152(18) 184108 (2020). https://doi.org/10.1063/5.0006002

                            Additional Code Authors
    E. T. Seidl, C. L. Janssen, E. F. Valeev, M. L. Leininger,
    J. F. Gonthier, R. M. Richard, H. R. McAlexander, M. Saitow, X. Wang,
    P. Verma, M. H. Lechner, and A. Jiang

             Previous Authors, Complete List of Code Contributors,
                       and Citations for Specific Modules
    https://github.com/psi4/psi4/blob/master/codemeta.json
    https://github.com/psi4/psi4/graphs/contributors
    http://psicode.org/psi4manual/master/introduction.html#citing-psifour

    -----------------------------------------------------------------------


    Psi4 started on: Saturday, 18 November 2023 05:42PM

    Process ID: 3262685
    Host:       cs064.hpc.nyu.edu
    PSIDATADIR: /ext3/miniconda3/share/psi4
    Memory:     500.0 MiB
    Threads:    1
    
  ==> Input QCSchema <==

--------------------------------------------------------------------------
{'driver': 'energy',
 'extras': {'psiapi': True, 'wfn_qcvars_only': True},
 'id': None,
 'keywords': {'FREEZE_CORE': '1', 'function_kwargs': {}},
 'model': {'basis': 'aug-cc-pvdz', 'method': 'ccsd(t)'},
 'molecule': {'atom_labels': ['', ''],
              'atomic_numbers': [10, 10],
              'fix_com': True,
              'fix_orientation': True,
              'fragment_charges': [0.0, 0.0],
              'fragment_multiplicities': [1, 1],
              'fragments': [[0], [1]],
              'geometry': [0.0, 0.0, -3.779452250915659, 0.0, 0.0, 3.779452250915658],
              'mass_numbers': [20, 20],
              'masses': [19.9924401762, 19.9924401762],
              'molecular_charge': 0.0,
              'molecular_multiplicity': 1,
              'name': 'Ne2',
              'provenance': {'creator': 'QCElemental',
                             'routine': 'qcelemental.molparse.from_string',
                             'version': 'v0.25.1'},
              'real': [False, True],
              'schema_name': 'qcschema_molecule',
              'schema_version': 2,
              'symbols': ['Ne', 'Ne'],
              'validated': True},
 'protocols': {'stdout': True},
 'provenance': {'creator': 'QCElemental', 'routine': 'qcelemental.models.results', 'version': 'v0.25.1'},
 'schema_name': 'qcschema_input',
 'schema_version': 1}
--------------------------------------------------------------------------

Scratch directory: /tmp/

*** tstart() called on cs064.hpc.nyu.edu
*** at Sat Nov 18 17:43:23 2023

   => Loading Basis Set <=

    Name: AUG-CC-PVDZ
    Role: ORBITAL
    Keyword: BASIS
    atoms 1-2 entry NE         line   326 file /ext3/miniconda3/share/psi4/basis/aug-cc-pvdz.gbs 


         ---------------------------------------------------------
                                   SCF
               by Justin Turney, Rob Parrish, Andy Simmonett
                          and Daniel G. A. Smith
                              RHF Reference
                        1 Threads,    500 MiB Core
         ---------------------------------------------------------

  ==> Geometry <==

    Molecular point group: c2v
    Full point group: C_inf_v

    Geometry (in Bohr), charge = 0, multiplicity = 1:

       Center              X                  Y                   Z               Mass       
    ------------   -----------------  -----------------  -----------------  -----------------
      Gh(NE)          0.000000000000     0.000000000000    -3.779452250916    19.992440176200
         NE           0.000000000000     0.000000000000     3.779452250916    19.992440176200

  Running in c2v symmetry.

  Rotational constants: A = ************  B =      0.10540  C =      0.10540 [cm^-1]
  Rotational constants: A = ************  B =   3159.81319  C =   3159.81319 [MHz]
  Nuclear repulsion =    0.000000000000000

  Charge       = 0
  Multiplicity = 1
  Electrons    = 10
  Nalpha       = 5
  Nbeta        = 5

  ==> Algorithm <==

  SCF Algorithm Type is PK.
  DIIS enabled.
  MOM disabled.
  Fractional occupation disabled.
  Guess Type is SAD.
  Energy threshold   = 1.00e-08
  Density threshold  = 1.00e-08
  Integral threshold = 1.00e-12

  ==> Primary Basis <==

  Basis Set: AUG-CC-PVDZ
    Blend: AUG-CC-PVDZ
    Number of shells: 18
    Number of basis functions: 46
    Number of Cartesian functions: 50
    Spherical Harmonics?: true
    Max angular momentum: 2

  ==> Integral Setup <==

  Using in-core PK algorithm.
   Calculation information:
      Number of atoms:                   2
      Number of AO shells:              18
      Number of primitives:             50
      Number of atomic orbitals:        50
      Number of basis functions:        46

      Integral cutoff                 1.00e-12
      Number of threads:                 1

  Performing in-core PK
  Using 1169642 doubles for integral storage.
  We computed 11155 shell quartets total.
  Whereas there are 14706 unique shell quartets.

  ==> DiskJK: Disk-Based J/K Matrices <==

    J tasked:                  Yes
    K tasked:                  Yes
    wK tasked:                  No
    Memory [MiB]:              375
    Schwarz Cutoff:          1E-12

    OpenMP threads:              1

  Minimum eigenvalue in the overlap matrix is 9.2935172489E-02.
  Reciprocal condition number of the overlap matrix is 4.1909812974E-02.
    Using symmetric orthogonalization.

  ==> Pre-Iterations <==

  SCF Guess: Superposition of Atomic Densities via on-the-fly atomic UHF (no occupation information).

   -------------------------
    Irrep   Nso     Nmo    
   -------------------------
     A1        22      22 
     A2         4       4 
     B1        10      10 
     B2        10      10 
   -------------------------
    Total      46      46
   -------------------------

  ==> Iterations <==

                        Total Energy        Delta E     RMS |[F,P]|

   @RHF iter SAD:  -128.49634722923201   -1.28496e+02   0.00000e+00 
   @RHF iter   1:  -128.49635123079321   -4.00156e-06   5.52250e-05 DIIS
   @RHF iter   2:  -128.49635166317844   -4.32385e-07   2.80160e-05 DIIS
   @RHF iter   3:  -128.49635179578840   -1.32610e-07   5.37829e-07 DIIS
   @RHF iter   4:  -128.49635179593164   -1.43245e-10   2.89514e-08 DIIS
   @RHF iter   5:  -128.49635179593179   -1.42109e-13   4.85450e-09 DIIS
  Energy and wave function converged.


  ==> Post-Iterations <==

    Orbital Energies [Eh]
    ---------------------

    Doubly Occupied:                                                      

       1A1   -32.794958     2A1    -1.940427     1B1    -0.853046  
       1B2    -0.853046     3A1    -0.853043  

    Virtual:                                                              

       4A1     0.159222     5A1     0.226541     2B2     0.248140  
       2B1     0.248140     6A1     0.290073     3B2     0.300645  
       3B1     0.300645     7A1     0.378335     8A1     1.031120  
       4B2     1.306212     4B1     1.306212     9A1     1.325037  
      10A1     1.757689     1A2     1.757689     5B1     1.757806  
       5B2     1.757806    11A1     1.760416     6B2     1.962470  
       6B1     1.962470    12A1     1.982522     2A2     2.123616  
      13A1     2.123616     7B2     2.123852     7B1     2.123852  
      14A1     2.129673    15A1     2.756965    16A1     4.638903  
       3A2     6.372467    17A1     6.372467     8B2     6.372505  
       8B1     6.372505    18A1     6.373502     9B2     8.943094  
       9B1     8.943094    19A1     8.955046     4A2     8.956239  
      20A1     8.956239    10B1     8.956280    10B2     8.956280  
      21A1     8.965860    22A1    53.403904  

    Final Occupation by Irrep:
             A1    A2    B1    B2 
    DOCC [     3,    0,    1,    1 ]
    NA   [     3,    0,    1,    1 ]
    NB   [     3,    0,    1,    1 ]

  @RHF Final Energy:  -128.49635179593179

   => Energetics <=

    Nuclear Repulsion Energy =              0.0000000000000000
    One-Electron Energy =                -182.4036615395611420
    Two-Electron Energy =                  53.9073097436293693
    Total Energy =                       -128.4963517959317869

Computation Completed


Properties will be evaluated at   0.000000,   0.000000,   0.000000 [a0]

Properties computed using the SCF density matrix


 Multipole Moments:

 ------------------------------------------------------------------------------------
     Multipole            Electronic (a.u.)      Nuclear  (a.u.)        Total (a.u.)
 ------------------------------------------------------------------------------------

 L = 1.  Multiply by 2.5417464519 to convert [e a0] to [Debye]
 Dipole X            :          0.0000000            0.0000000            0.0000000
 Dipole Y            :          0.0000000            0.0000000            0.0000000
 Dipole Z            :        -37.7946315           37.7945225           -0.0001090
 Magnitude           :                                                    0.0001090

 ------------------------------------------------------------------------------------

*** tstop() called on cs064.hpc.nyu.edu at Sat Nov 18 17:43:24 2023
Module time:
	user time   =       0.25 seconds =       0.00 minutes
	system time =       0.01 seconds =       0.00 minutes
	total time  =          1 seconds =       0.02 minutes
Total time:
	user time   =      12.78 seconds =       0.21 minutes
	system time =       3.61 seconds =       0.06 minutes
	total time  =         76 seconds =       1.27 minutes
 MINTS: Wrapper to libmints.
   by Justin Turney

   Calculation information:
      Number of threads:                 1
      Number of atoms:                   2
      Number of AO shells:              18
      Number of SO shells:              18
      Number of primitives:             50
      Number of atomic orbitals:        50
      Number of basis functions:        46

      Number of irreps:                  4
      Integral cutoff                 1.00e-12
      Number of functions per irrep: [  22    4   10   10 ]

 OEINTS: Overlap, kinetic, potential, dipole, and quadrupole integrals
         stored in file 35.

      Computing two-electron integrals...done
      Computed 78403 non-zero two-electron integrals.
        Stored in file 33.


*** tstart() called on cs064.hpc.nyu.edu
*** at Sat Nov 18 17:43:24 2023


	Wfn Parameters:
	--------------------
	Wavefunction         = CCSD_T
	Number of irreps     = 4
	Number of MOs        = 46
	Number of active MOs = 45
	AO-Basis             = NONE
	Semicanonical        = false
	Reference            = RHF
	Print Level          = 1

	IRREP	# MOs	# FZDC	# DOCC	# SOCC	# VIRT	# FZVR
	-----	-----	------	------	------	------	------
	 A1	   22	    1	    2	    0	    19	    0
	 A2	   4	    0	    0	    0	    4	    0
	 B1	   10	    0	    1	    0	    9	    0
	 B2	   10	    0	    1	    0	    9	    0
	Transforming integrals...
	IWL integrals will be deleted.
	(OO|OO)...
	Presorting SO-basis two-electron integrals.
	Sorting File: SO Ints (nn|nn) nbuckets = 1
	Constructing frozen core operators
	Starting first half-transformation.
	Sorting half-transformed integrals.
	First half integral transformation complete.
	Starting second half-transformation.
	Two-electron integral transformation complete.
	(OO|OV)...
	Starting second half-transformation.
	Two-electron integral transformation complete.
	(OO|VV)...
	Starting second half-transformation.
	Two-electron integral transformation complete.
	(OV|OO)...
	Starting first half-transformation.
	Sorting half-transformed integrals.
	First half integral transformation complete.
	Starting second half-transformation.
	Two-electron integral transformation complete.
	(OV|OV)...
	Starting second half-transformation.
	Two-electron integral transformation complete.
	(OV|VV)...
	Starting second half-transformation.
	Two-electron integral transformation complete.
	(VV|OO)...
	Starting first half-transformation.
	Sorting half-transformed integrals.
	First half integral transformation complete.
	Starting second half-transformation.
	Two-electron integral transformation complete.
	(VV|OV)...
	Starting second half-transformation.
	Two-electron integral transformation complete.
	(VV|VV)...
	Starting second half-transformation.
	Two-electron integral transformation complete.
	Frozen core energy     =    -93.84890057691604

	Size of irrep 0 of <ab|cd> integrals:      0.291 (MW) /      2.324 (MB)
	Size of irrep 1 of <ab|cd> integrals:      0.099 (MW) /      0.789 (MB)
	Size of irrep 2 of <ab|cd> integrals:      0.171 (MW) /      1.371 (MB)
	Size of irrep 3 of <ab|cd> integrals:      0.171 (MW) /      1.371 (MB)
	Total:                                     0.732 (MW) /      5.855 (MB)

	Size of irrep 0 of <ia|bc> integrals:      0.030 (MW) /      0.241 (MB)
	Size of irrep 1 of <ia|bc> integrals:      0.008 (MW) /      0.065 (MB)
	Size of irrep 2 of <ia|bc> integrals:      0.017 (MW) /      0.136 (MB)
	Size of irrep 3 of <ia|bc> integrals:      0.017 (MW) /      0.136 (MB)
	Total:                                     0.072 (MW) /      0.578 (MB)

	Size of irrep 0 of tijab amplitudes:       0.003 (MW) /      0.026 (MB)
	Size of irrep 1 of tijab amplitudes:       0.001 (MW) /      0.005 (MB)
	Size of irrep 2 of tijab amplitudes:       0.002 (MW) /      0.013 (MB)
	Size of irrep 3 of tijab amplitudes:       0.002 (MW) /      0.013 (MB)
	Total:                                     0.007 (MW) /      0.057 (MB)

	Nuclear Rep. energy          =      0.00000000000000
	SCF energy                   =   -128.49635179593179
	One-electron energy          =    -60.29577666413293
	Two-electron energy          =     25.64832544511705
	Reference energy             =   -128.49635179593190

*** tstop() called on cs064.hpc.nyu.edu at Sat Nov 18 17:43:24 2023
Module time:
	user time   =       0.05 seconds =       0.00 minutes
	system time =       0.04 seconds =       0.00 minutes
	total time  =          0 seconds =       0.00 minutes
Total time:
	user time   =      12.93 seconds =       0.22 minutes
	system time =       3.65 seconds =       0.06 minutes
	total time  =         76 seconds =       1.27 minutes
            **************************
            *                        *
            *        CCENERGY        *
            *                        *
            **************************

    Nuclear Rep. energy (wfn)     =    0.000000000000000
    SCF energy          (wfn)     = -128.496351795931787
    Reference energy    (file100) = -128.496351795931901

    Input parameters:
    -----------------
    Wave function   =     CCSD_T
    Reference wfn   =     RHF
    Brueckner       =     No
    Memory (Mbytes) =     524.3
    Maxiter         =     50
    R_Convergence   =     1.0e-07
    E_Convergence   =     1.0e-06
    Restart         =     Yes
    DIIS            =     Yes
    AO Basis        =     NONE
    ABCD            =     NEW
    Cache Level     =     2
    Cache Type      =     LOW
    Print Level     =     1
    Num. of threads =     1
    # Amps to Print =     10
    Print MP2 Amps? =     No
    Analyze T2 Amps =     No
    Print Pair Ener =     No
    Local CC        =     No
    SCS-MP2         =     False
    SCSN-MP2        =     False
    SCS-CCSD        =     False

MP2 correlation energy -0.2068951385861903
                Solving CC Amplitude Equations
                ------------------------------
  Iter             Energy              RMS        T1Diag      D1Diag    New D1Diag    D2Diag
  ----     ---------------------    ---------   ----------  ----------  ----------   --------
     0        -0.206895138586190    0.000e+00    0.000000    0.000000    0.000000    0.082894
     1        -0.207253277192736    2.740e-02    0.008596    0.013685    0.013685    0.083766
     2        -0.209706086956742    7.134e-03    0.008256    0.013028    0.013028    0.085831
     3        -0.210227785135546    2.781e-03    0.009260    0.014634    0.014634    0.086500
[...]
                             'version': 'v0.25.1'},
              'real': [True, True],
              'schema_name': 'qcschema_molecule',
              'schema_version': 2,
              'symbols': ['Ne', 'Ne'],
              'validated': True},
 'protocols': {'stdout': True},
 'provenance': {'creator': 'QCElemental', 'routine': 'qcelemental.models.results', 'version': 'v0.25.1'},
 'schema_name': 'qcschema_input',
 'schema_version': 1}
--------------------------------------------------------------------------

Scratch directory: /tmp/

*** tstart() called on cs064.hpc.nyu.edu
*** at Sat Nov 18 17:43:35 2023

   => Loading Basis Set <=

    Name: AUG-CC-PVDZ
    Role: ORBITAL
    Keyword: BASIS
    atoms 1-2 entry NE         line   326 file /ext3/miniconda3/share/psi4/basis/aug-cc-pvdz.gbs 


         ---------------------------------------------------------
                                   SCF
               by Justin Turney, Rob Parrish, Andy Simmonett
                          and Daniel G. A. Smith
                              RHF Reference
                        1 Threads,    500 MiB Core
         ---------------------------------------------------------

  ==> Geometry <==

    Molecular point group: d2h
    Full point group: D_inf_h

    Geometry (in Bohr), charge = 0, multiplicity = 1:

       Center              X                  Y                   Z               Mass       
    ------------   -----------------  -----------------  -----------------  -----------------
         NE           0.000000000000     0.000000000000    -5.669178376373    19.992440176200
         NE           0.000000000000     0.000000000000     5.669178376373    19.992440176200

  Running in d2h symmetry.

  Rotational constants: A = ************  B =      0.04684  C =      0.04684 [cm^-1]
  Rotational constants: A = ************  B =   1404.36142  C =   1404.36142 [MHz]
  Nuclear repulsion =    8.819620177833340

  Charge       = 0
  Multiplicity = 1
  Electrons    = 20
  Nalpha       = 10
  Nbeta        = 10

  ==> Algorithm <==

  SCF Algorithm Type is PK.
  DIIS enabled.
  MOM disabled.
  Fractional occupation disabled.
  Guess Type is SAD.
  Energy threshold   = 1.00e-08
  Density threshold  = 1.00e-08
  Integral threshold = 1.00e-12

  ==> Primary Basis <==

  Basis Set: AUG-CC-PVDZ
    Blend: AUG-CC-PVDZ
    Number of shells: 18
    Number of basis functions: 46
    Number of Cartesian functions: 50
    Spherical Harmonics?: true
    Max angular momentum: 2

  ==> Integral Setup <==

  Using in-core PK algorithm.
   Calculation information:
      Number of atoms:                   2
      Number of AO shells:              18
      Number of primitives:             50
      Number of atomic orbitals:        50
      Number of basis functions:        46

      Integral cutoff                 1.00e-12
      Number of threads:                 1

  Performing in-core PK
  Using 1169642 doubles for integral storage.
  We computed 7529 shell quartets total.
  Whereas there are 14706 unique shell quartets.

  ==> DiskJK: Disk-Based J/K Matrices <==

    J tasked:                  Yes
    K tasked:                  Yes
    wK tasked:                  No
    Memory [MiB]:              375
    Schwarz Cutoff:          1E-12

    OpenMP threads:              1

  Minimum eigenvalue in the overlap matrix is 9.8567169803E-02.
  Reciprocal condition number of the overlap matrix is 4.4873722379E-02.
    Using symmetric orthogonalization.

  ==> Pre-Iterations <==

  SCF Guess: Superposition of Atomic Densities via on-the-fly atomic UHF (no occupation information).

   -------------------------
    Irrep   Nso     Nmo    
   -------------------------
     Ag        11      11 
     B1g        2       2 
     B2g        5       5 
     B3g        5       5 
     Au         2       2 
     B1u       11      11 
     B2u        5       5 
     B3u        5       5 
   -------------------------
    Total      46      46
   -------------------------

  ==> Iterations <==

                        Total Energy        Delta E     RMS |[F,P]|

   @RHF iter SAD:  -256.99269445927780   -2.56993e+02   0.00000e+00 
   @RHF iter   1:  -256.99269842166683   -3.96239e-06   1.10162e-04 DIIS/ADIIS
   @RHF iter   2:  -256.99269924568608   -8.24019e-07   5.60971e-05 DIIS
   @RHF iter   3:  -256.99269951133391   -2.65648e-07   9.19617e-07 DIIS
   @RHF iter   4:  -256.99269951147562   -1.41711e-10   2.05444e-08 DIIS
   @RHF iter   5:  -256.99269951147556    5.68434e-14   2.64338e-09 DIIS
  Energy and wave function converged.


  ==> Post-Iterations <==

    Orbital Energies [Eh]
    ---------------------

    Doubly Occupied:                                                      

       1B1u  -32.794951     1Ag   -32.794951     2B1u   -1.940421  
       2Ag    -1.940421     3Ag    -0.853042     1B3u   -0.853040  
       1B2u   -0.853040     1B2g   -0.853040     1B3g   -0.853040  
       3B1u   -0.853038  

    Virtual:                                                              

       4Ag     0.280567     4B1u    0.287441     5Ag     0.288389  
       2B3u    0.291994     2B2u    0.291994     2B2g    0.294031  
       2B3g    0.294031     5B1u    0.304734     6Ag     1.757692  
       6B1u    1.757692     3B3g    1.757692     3B2g    1.757692  
       1Au     1.757692     7B1u    1.757692     1B1g    1.757692  
       7Ag     1.757692     3B2u    1.757692     3B3u    1.757692  
       8Ag     1.954200     4B2u    1.960716     4B3u    1.960716  
       4B3g    1.961988     4B2g    1.961988     8B1u    1.968909  
       9Ag     2.741216     9B1u    2.742784     5B3u    6.372473  
       5B2u    6.372473     2B1g    6.372473    10Ag     6.372473  
       2Au     6.372473    10B1u    6.372473     5B3g    6.372473  
       5B2g    6.372473    11B1u    6.372473    11Ag     6.372473  

    Final Occupation by Irrep:
             Ag   B1g   B2g   B3g    Au   B1u   B2u   B3u 
    DOCC [     3,    0,    1,    1,    0,    3,    1,    1 ]
    NA   [     3,    0,    1,    1,    0,    3,    1,    1 ]
    NB   [     3,    0,    1,    1,    0,    3,    1,    1 ]

  @RHF Final Energy:  -256.99269951147556

   => Energetics <=

    Nuclear Repulsion Energy =              8.8196201778333396
    One-Electron Energy =                -382.4466698855202935
    Two-Electron Energy =                 116.6343501962113862
    Total Energy =                       -256.9926995114756210

Computation Completed


Properties will be evaluated at   0.000000,   0.000000,   0.000000 [a0]

Properties computed using the SCF density matrix


 Multipole Moments:

 ------------------------------------------------------------------------------------
     Multipole            Electronic (a.u.)      Nuclear  (a.u.)        Total (a.u.)
 ------------------------------------------------------------------------------------

 L = 1.  Multiply by 2.5417464519 to convert [e a0] to [Debye]
 Dipole X            :          0.0000000            0.0000000            0.0000000
 Dipole Y            :          0.0000000            0.0000000            0.0000000
 Dipole Z            :          0.0000000            0.0000000            0.0000000
 Magnitude           :                                                    0.0000000

 ------------------------------------------------------------------------------------

*** tstop() called on cs064.hpc.nyu.edu at Sat Nov 18 17:43:35 2023
Module time:
	user time   =       0.25 seconds =       0.00 minutes
	system time =       0.01 seconds =       0.00 minutes
	total time  =          0 seconds =       0.00 minutes
Total time:
	user time   =      21.06 seconds =       0.35 minutes
	system time =       5.98 seconds =       0.10 minutes
	total time  =         87 seconds =       1.45 minutes
 MINTS: Wrapper to libmints.
   by Justin Turney

   Calculation information:
      Number of threads:                 1
      Number of atoms:                   2
      Number of AO shells:              18
      Number of SO shells:               9
      Number of primitives:             50
      Number of atomic orbitals:        50
      Number of basis functions:        46

      Number of irreps:                  8
      Integral cutoff                 1.00e-12
      Number of functions per irrep: [  11    2    5    5    2   11    5    5 ]

 OEINTS: Overlap, kinetic, potential, dipole, and quadrupole integrals
         stored in file 35.

      Computing two-electron integrals...done
      Computed 69839 non-zero two-electron integrals.
        Stored in file 33.


*** tstart() called on cs064.hpc.nyu.edu
*** at Sat Nov 18 17:43:35 2023


	Wfn Parameters:
	--------------------
	Wavefunction         = CCSD_T
	Number of irreps     = 8
	Number of MOs        = 46
	Number of active MOs = 44
	AO-Basis             = NONE
	Semicanonical        = false
	Reference            = RHF
	Print Level          = 1

	IRREP	# MOs	# FZDC	# DOCC	# SOCC	# VIRT	# FZVR
	-----	-----	------	------	------	------	------
	 Ag	   11	    1	    2	    0	    8	    0
	 B1g	   2	    0	    0	    0	    2	    0
	 B2g	   5	    0	    1	    0	    4	    0
	 B3g	   5	    0	    1	    0	    4	    0
	 Au	   2	    0	    0	    0	    2	    0
	 B1u	   11	    1	    2	    0	    8	    0
	 B2u	   5	    0	    1	    0	    4	    0
	 B3u	   5	    0	    1	    0	    4	    0
	Transforming integrals...
	IWL integrals will be deleted.
	(OO|OO)...
	Presorting SO-basis two-electron integrals.
	Sorting File: SO Ints (nn|nn) nbuckets = 1
	Constructing frozen core operators
	Starting first half-transformation.
	Sorting half-transformed integrals.
	First half integral transformation complete.
	Starting second half-transformation.
	Two-electron integral transformation complete.
	(OO|OV)...
	Starting second half-transformation.
	Two-electron integral transformation complete.
	(OO|VV)...
	Starting second half-transformation.
	Two-electron integral transformation complete.
	(OV|OO)...
	Starting first half-transformation.
	Sorting half-transformed integrals.
	First half integral transformation complete.
	Starting second half-transformation.
	Two-electron integral transformation complete.
	(OV|OV)...
	Starting second half-transformation.
	Two-electron integral transformation complete.
	(OV|VV)...
	Starting second half-transformation.
	Two-electron integral transformation complete.
	(VV|OO)...
	Starting first half-transformation.
	Sorting half-transformed integrals.
	First half integral transformation complete.
	Starting second half-transformation.
	Two-electron integral transformation complete.
	(VV|OV)...
	Starting second half-transformation.
	Two-electron integral transformation complete.
	(VV|VV)...
	Starting second half-transformation.
	Two-electron integral transformation complete.
	Frozen core energy     =   -190.87286635250973

	Size of irrep 0 of <ab|cd> integrals:      0.040 (MW) /      0.320 (MB)
	Size of irrep 1 of <ab|cd> integrals:      0.016 (MW) /      0.131 (MB)
	Size of irrep 2 of <ab|cd> integrals:      0.026 (MW) /      0.205 (MB)
	Size of irrep 3 of <ab|cd> integrals:      0.026 (MW) /      0.205 (MB)
	Size of irrep 4 of <ab|cd> integrals:      0.016 (MW) /      0.131 (MB)
	Size of irrep 5 of <ab|cd> integrals:      0.040 (MW) /      0.320 (MB)
	Size of irrep 6 of <ab|cd> integrals:      0.026 (MW) /      0.205 (MB)
	Size of irrep 7 of <ab|cd> integrals:      0.026 (MW) /      0.205 (MB)
	Total:                                     0.215 (MW) /      1.721 (MB)

	Size of irrep 0 of <ia|bc> integrals:      0.010 (MW) /      0.077 (MB)
	Size of irrep 1 of <ia|bc> integrals:      0.003 (MW) /      0.025 (MB)
	Size of irrep 2 of <ia|bc> integrals:      0.006 (MW) /      0.046 (MB)
	Size of irrep 3 of <ia|bc> integrals:      0.006 (MW) /      0.046 (MB)
	Size of irrep 4 of <ia|bc> integrals:      0.003 (MW) /      0.025 (MB)
	Size of irrep 5 of <ia|bc> integrals:      0.010 (MW) /      0.077 (MB)
	Size of irrep 6 of <ia|bc> integrals:      0.006 (MW) /      0.046 (MB)
	Size of irrep 7 of <ia|bc> integrals:      0.006 (MW) /      0.046 (MB)
	Total:                                     0.048 (MW) /      0.387 (MB)

	Size of irrep 0 of tijab amplitudes:       0.002 (MW) /      0.019 (MB)
	Size of irrep 1 of tijab amplitudes:       0.001 (MW) /      0.004 (MB)
	Size of irrep 2 of tijab amplitudes:       0.001 (MW) /      0.010 (MB)
	Size of irrep 3 of tijab amplitudes:       0.001 (MW) /      0.010 (MB)
	Size of irrep 4 of tijab amplitudes:       0.001 (MW) /      0.004 (MB)
	Size of irrep 5 of tijab amplitudes:       0.002 (MW) /      0.019 (MB)
	Size of irrep 6 of tijab amplitudes:       0.001 (MW) /      0.010 (MB)
	Size of irrep 7 of tijab amplitudes:       0.001 (MW) /      0.010 (MB)
	Total:                                     0.011 (MW) /      0.088 (MB)

	Nuclear Rep. energy          =      8.81962017783334
	SCF energy                   =   -256.99269951147556
	One-electron energy          =   -131.88074090939156
	Two-electron energy          =     56.94128757259232
	Reference energy             =   -256.99269951147562

*** tstop() called on cs064.hpc.nyu.edu at Sat Nov 18 17:43:35 2023
Module time:
	user time   =       0.05 seconds =       0.00 minutes
	system time =       0.03 seconds =       0.00 minutes
	total time  =          0 seconds =       0.00 minutes
Total time:
	user time   =      21.18 seconds =       0.35 minutes
	system time =       6.01 seconds =       0.10 minutes
	total time  =         87 seconds =       1.45 minutes
            **************************
            *                        *
            *        CCENERGY        *
            *                        *
            **************************

    Nuclear Rep. energy (wfn)     =    8.819620177833340
    SCF energy          (wfn)     = -256.992699511475564
    Reference energy    (file100) = -256.992699511475621

    Input parameters:
    -----------------
    Wave function   =     CCSD_T
    Reference wfn   =     RHF
    Brueckner       =     No
    Memory (Mbytes) =     524.3
    Maxiter         =     50
    R_Convergence   =     1.0e-07
    E_Convergence   =     1.0e-06
    Restart         =     Yes
    DIIS            =     Yes
    AO Basis        =     NONE
    ABCD            =     NEW
    Cache Level     =     2
    Cache Type      =     LOW
    Print Level     =     1
    Num. of threads =     1
    # Amps to Print =     10
    Print MP2 Amps? =     No
    Analyze T2 Amps =     No
    Print Pair Ener =     No
    Local CC        =     No
    SCS-MP2         =     False
    SCSN-MP2        =     False
    SCS-CCSD        =     False

MP2 correlation energy -0.4137492117705621
                Solving CC Amplitude Equations
                ------------------------------
  Iter             Energy              RMS        T1Diag      D1Diag    New D1Diag    D2Diag
  ----     ---------------------    ---------   ----------  ----------  ----------   --------
     0        -0.413749211770562    0.000e+00    0.000000    0.000000    0.000000    0.082891
     1        -0.414467783326400    3.876e-02    0.008597    0.013741    0.013741    0.083764
     2        -0.419368140285348    1.010e-02    0.008258    0.013084    0.013084    0.085827
     3        -0.420412688240569    3.939e-03    0.009265    0.014718    0.014718    0.086496
     4        -0.420329957578885    4.928e-04    0.009376    0.014893    0.014893    0.086524
     5        -0.420312273112377    1.035e-04    0.009394    0.014929    0.014929    0.086519
     6        -0.420311722962875    2.045e-05    0.009399    0.014937    0.014937    0.086518
     7        -0.420311104859292    3.927e-06    0.009399    0.014938    0.014938    0.086518
     8        -0.420311018430101    6.571e-07    0.009399    0.014938    0.014938    0.086518
     9        -0.420311023979063    1.290e-07    0.009399    0.014938    0.014938    0.086518
    10        -0.420311020526831    3.308e-08    0.009399    0.014938    0.014938    0.086518

    Iterations converged.


    Largest TIA Amplitudes:
              6  28        -0.0145291319
              7  32        -0.0145291319
              2  10        -0.0145130409
              3  14        -0.0145130409
              5  21         0.0141465753
              1   0         0.0128432767
              1   1        -0.0069451257
              4  20         0.0065767059
              0   1         0.0058971179
              0   0         0.0032070264

    Largest TIjAb Amplitudes:
      5   5   4   4        -0.0169699047
      1   1   4   4        -0.0169695030
      6   6  30  30        -0.0168844586
      7   7  34  34        -0.0168844586
      2   2  34  34        -0.0168842589
      3   3  30  30        -0.0168842589
      2   7  12  34        -0.0168759079
      3   6  16  30        -0.0168759079
      6   3  30  16        -0.0168759079
      7   2  34  12        -0.0168759079

    SCF energy       (wfn)                    = -256.992699511475564
    Reference energy (file100)                = -256.992699511475621

    Opposite-spin MP2 correlation energy      =   -0.300271462215745
    Same-spin MP2 correlation energy          =   -0.113477749554817
    Singles MP2 correlation energy            =   -0.000000000000000
    MP2 correlation energy                    =   -0.413749211770562
      * MP2 total energy                      = -257.406448723246172

    Opposite-spin CCSD correlation energy     =   -0.315772666769002
    Same-spin CCSD correlation energy         =   -0.104538353757829
    Singles CCSD correlation energy           =    0.000000000000000
    CCSD correlation energy                   =   -0.420311020526831
      * CCSD total energy                     = -257.413010532002431

            **************************
            *                        *
            *        CCTRIPLES       *
            *                        *
            **************************


    Wave function   =    CCSD_T
    Reference wfn   =      RHF

    Nuclear Rep. energy (wfn)                =    8.819620177833340
    SCF energy          (wfn)                = -256.992699511475564
    Reference energy    (file100)            = -256.992699511475621
    CCSD energy         (file100)            =   -0.420311020526831
    Total CCSD energy   (file100)            = -257.413010532002431

    Number of ijk index combinations:              120
    Memory available in words               :        65536000
    Approx. words needed per explicit thread:            2048
    Number of threads for explicit ijk threading:    1

    MKL num_threads set to 1 for explicit threading.

    (T) energy                                =   -0.005581199648133
      * CCSD(T) total energy                  = -257.418591731650565


    Psi4 stopped on: Saturday, 18 November 2023 05:43PM
    Psi4 wall time for execution: 0:00:00.78


  //>>>>>>>>>>>>>>>>>>>>>>>>>>>>>>>>>>>//
  //          ManyBody Results         //
  //<<<<<<<<<<<<<<<<<<<<<<<<<<<<<<<<<<<//


   ==> N-Body: Counterpoise Corrected (CP) energies <==

        n-Body     Total Energy            Interaction Energy                          N-body Contribution to Interaction Energy
                   [Eh]                    [Eh]                  [kcal/mol]            [Eh]                  [kcal/mol]
             1  N/A                         0.000000000000        0.000000000000        0.000000000000        0.000000000000
  FULL/RTN   2  N/A                        -0.000002240665       -0.001406038353       -0.000002240665       -0.001406038353

CP-corrected CCSD(T)/aug-cc-pVDZ Interaction Energies

          R [Ang]                 E_int [kcal/mol]       
---------------------------------------------------------
            3.5                        -0.028118
            4.0                        -0.016266
            4.5                        -0.008303
            5.0                        -0.004355
            5.5                        -0.002405
            6.0                        -0.001406
