ITEM: TIMESTEP
100000
ITEM: NUMBER OF ATOMS
2048
ITEM: BOX BOUNDS pp pp pp
0.0000000000000000e+00 1.1635780856594225e+01
0.0000000000000000e+00 1.1635780856594225e+01
0.0000000000000000e+00 1.1635780856594225e+01
ITEM: ATOMS id type xs ys zs
5 1 0.118704 0.00586597 -0.00179229
18 1 0.127701 0.134536 0.120733
8 1 0.114404 0.0715003 0.0633267
12 1 0.191442 0.128835 0.0699543
10 1 0.059616 0.132852 0.0643821
14 1 0.0637499 0.0646841 0.127711
16 1 0.184759 0.0605978 0.132816
7 1 0.189806 0.000969552 0.0631154
4 1 0.00221808 0.0633972 0.0670611
3 1 0.057472 0.00298377 0.0596962
15 1 0.12404 0.00438867 0.116027
17 1 -0.000397351 0.116362 0.128865
516 1 0.244119 0.0637752 0.0617808
513 1 0.245624 0.000597831 0.00386175
26 1 0.0638768 0.0554331 0.250036
22 1 0.122809 0.0739261 0.191841
30 1 0.192579 0.0701265 0.251646
32 1 0.12532 0.0642396 0.309261
34 1 0.061388 0.126591 0.309614
36 1 0.183106 0.123849 0.322004
23 1 0.0532225 0.12132 0.191786
35 1 0.130274 0.128786 0.257135
24 1 0.191369 0.123983 0.182962
28 1 0.00754149 0.05988 0.310121
532 1 0.2533 0.065401 0.196145
33 1 -7.10685e-05 0.121794 0.254142
31 1 0.189971 0.00741327 0.308796
27 1 0.0642991 0.000863005 0.317436
19 1 0.0733161 0.00455202 0.184034
37 1 0.00133546 0.00655704 0.370601
38 1 0.0646047 0.0572866 0.374318
44 1 0.124101 0.0628879 0.437139
42 1 0.195586 0.0657295 0.383069
59 1 0.122063 0.122809 0.501317
47 1 0.120351 0.123574 0.384801
48 1 0.18921 0.127005 0.444523
46 1 0.0604477 0.126073 0.444009
45 1 0.00678439 0.125368 0.372292
41 1 0.136702 0.0060641 0.374926
43 1 0.192737 0.000310563 0.438599
50 1 0.0599428 0.0614527 0.494426
64 1 0.178481 0.064028 0.629941
62 1 0.0647363 0.0637647 0.627463
56 1 0.121291 0.0593974 0.569085
66 1 0.123231 0.128992 0.62841
60 1 0.185371 0.125151 0.562357
58 1 0.0661973 0.131682 0.561535
569 1 0.253175 0.124528 0.503485
52 1 0.000997207 0.0653924 0.563121
561 1 0.248574 0.00269776 0.503097
564 1 0.24309 0.0586759 0.566529
65 1 0.010434 0.125724 0.62566
54 1 0.187465 0.0669553 0.498331
577 1 0.246318 0.120354 0.640614
53 1 0.132729 0.00559407 0.501189
84 1 0.192235 0.12183 0.811903
70 1 0.11659 0.0581827 0.689653
81 1 0.00675447 0.132437 0.751543
71 1 0.066214 0.129739 0.686396
83 1 0.124815 0.125905 0.757027
72 1 0.183245 0.128467 0.69355
74 1 0.0649592 0.0646052 0.754869
80 1 0.126885 0.0617731 0.818102
82 1 0.0651949 0.128908 0.814442
78 1 0.183067 0.0605925 0.741272
73 1 0.00513768 -0.000835699 0.748871
68 1 0.00600541 0.0593317 0.683319
79 1 0.189801 0.00860857 0.812473
77 1 0.121768 0.00192454 0.75006
580 1 0.243527 0.051168 0.687909
585 1 0.24911 -0.00121626 0.754416
86 1 0.0516237 0.0584817 0.86749
90 1 0.201957 0.0631543 0.879818
92 1 0.123565 0.0640958 0.937713
95 1 0.128037 0.125041 0.876907
96 1 0.193082 0.127195 0.939974
94 1 0.0642576 0.12279 0.936222
91 1 0.189042 0.00236942 0.940998
89 1 0.124126 0.00223075 0.878658
2 1 0.0614401 0.0649788 0.998623
11 1 0.119651 0.123868 0.998451
600 1 0.251909 0.0612862 0.947225
605 1 0.246004 0.135495 0.878211
93 1 -0.001083 0.126651 0.873949
87 1 0.0632241 0.00661276 0.938107
6 1 0.181161 0.0644867 1.00088
113 1 0.122969 0.251142 0.128339
100 1 0.12164 0.191334 0.0579762
114 1 0.191136 0.307736 0.125575
110 1 0.187499 0.187339 0.13215
109 1 0.0593892 0.186927 0.12554
111 1 0.0020285 0.25795 0.128266
112 1 0.0679135 0.309455 0.124381
103 1 0.0539817 0.248726 0.0651664
108 1 0.122451 0.323429 0.0583729
107 1 0.183247 0.243389 0.0677227
610 1 0.250152 0.193134 0.0617182
102 1 0.064791 0.302841 -0.00281649
106 1 0.188165 0.304437 0.00759298
99 1 0.18454 0.180754 0.00396895
121 1 0.0658866 0.191964 0.255551
117 1 0.0596804 0.250626 0.188699
116 1 0.12269 0.178044 0.191333
123 1 0.190358 0.196165 0.243823
132 1 0.129503 0.315752 0.322577
120 1 0.122534 0.308747 0.188431
119 1 0.196295 0.248985 0.184922
131 1 0.185749 0.24564 0.314028
127 1 0.0660133 0.248763 0.316121
124 1 0.123083 0.183767 0.319882
130 1 0.187484 0.307157 0.246931
126 1 0.0607169 0.30551 0.24727
129 1 0.12433 0.252482 0.252204
125 1 0.00299553 0.245027 0.254425
122 1 0.00330248 0.181481 0.31265
115 1 0.00731255 0.185882 0.191655
640 1 0.247378 0.306937 0.316461
133 1 0.0604837 0.192972 0.37906
135 1 0.183941 0.184678 0.381634
649 1 0.251838 0.246591 0.376698
143 1 0.191833 0.244941 0.441382
138 1 0.060955 0.309296 0.374623
141 1 0.128829 0.251265 0.382019
142 1 0.18964 0.306568 0.381122
144 1 0.121646 0.311547 0.442107
136 1 0.126617 0.189615 0.439986
139 1 0.0591352 0.24632 0.436183
140 1 0.00127652 0.304457 0.440254
145 1 0.0625885 0.188279 0.500924
150 1 0.0622904 0.303748 0.49982
646 1 0.246667 0.183732 0.442296
134 1 0.00175353 0.179315 0.437502
154 1 0.193257 0.316554 0.494607
148 1 0.130662 0.19204 0.573838
161 1 0.126018 0.248934 0.63438
151 1 0.0676181 0.248504 0.562478
156 1 0.118336 0.318999 0.5647
155 1 0.180901 0.263899 0.56569
157 1 0.0654725 0.188044 0.624969
158 1 0.18649 0.185127 0.63013
160 1 0.0650688 0.315275 0.629328
162 1 0.186786 0.312613 0.631983
153 1 0.127617 0.242194 0.501204
147 1 0.192378 0.186126 0.508965
146 1 0.00448929 0.189926 0.560628
152 1 0.00616778 0.318011 0.558794
169 1 0.0668132 0.19023 0.747264
175 1 0.0630906 0.254499 0.816163
164 1 0.126013 0.187675 0.692166
171 1 0.190381 0.185753 0.747865
177 1 0.128354 0.250748 0.746809
174 1 0.0595898 0.313289 0.749913
180 1 0.127901 0.308924 0.808301
165 1 0.0512596 0.252292 0.689292
168 1 0.123884 0.310976 0.687515
167 1 0.192392 0.244097 0.69027
178 1 0.189505 0.311566 0.752898
179 1 0.187399 0.241408 0.804123
172 1 0.125113 0.194222 0.815894
170 1 -3.49988e-05 0.188294 0.816474
682 1 0.249432 0.19273 0.81934
181 1 0.0637504 0.181305 0.87853
183 1 0.189134 0.197384 0.871875
105 1 0.120556 0.246045 0.989078
186 1 0.0692705 0.313789 0.87337
189 1 0.128479 0.256346 0.87337
190 1 0.188146 0.313102 0.876981
187 1 0.0622634 0.245115 0.924572
184 1 0.128177 0.179473 0.939187
192 1 0.12709 0.31093 0.937702
191 1 0.194796 0.257541 0.938784
101 1 0.00210025 0.24698 1.00081
97 1 0.0623501 0.187223 0.994919
182 1 0.00258852 0.189109 0.939778
195 1 0.0603271 0.376365 0.0673136
203 1 0.133282 0.366306 0.12554
199 1 0.197476 0.370211 0.0681033
202 1 0.0702867 0.434154 0.125991
204 1 0.195223 0.440249 0.125743
200 1 0.134322 0.426072 0.0606763
201 1 0.00270629 0.363587 0.129124
259 1 0.071659 0.492807 0.0576957
263 1 0.193508 0.494448 0.0556071
713 1 0.247873 0.372907 0.132115
708 1 0.24677 0.434003 0.0549671
196 1 -0.00169722 0.445813 0.0636373
205 1 0.0668383 0.369753 0.184856
207 1 0.188905 0.371151 0.192415
215 1 0.193314 0.373974 0.316705
214 1 0.190062 0.434679 0.252166
213 1 0.127627 0.368542 0.246614
208 1 0.127836 0.43428 0.18956
210 1 0.0677812 0.432465 0.249404
216 1 0.119487 0.430312 0.313052
211 1 0.0573225 0.371624 0.312186
209 1 0.00550941 0.385094 0.246574
283 1 0.0608171 0.495081 0.305871
724 1 0.24862 0.432911 0.310387
721 1 0.248168 0.369282 0.253486
275 1 0.0640909 0.498032 0.181094
287 1 0.182246 0.494298 0.31334
212 1 0.00126398 0.435198 0.321933
281 1 0.00111184 0.489611 0.25011
793 1 0.243626 0.501806 0.247979
285 1 0.124869 0.49308 0.248653
277 1 0.181301 0.496707 0.187676
221 1 0.12357 0.379207 0.378753
218 1 0.0663185 0.441067 0.377665
224 1 0.125612 0.436241 0.436217
222 1 0.184946 0.440024 0.381607
219 1 0.0617218 0.381566 0.437152
223 1 0.187017 0.371424 0.436991
225 1 0.00549951 0.378258 0.500161
299 1 0.17592 0.501835 0.437589
297 1 0.126264 0.498652 0.369386
229 1 0.127374 0.37362 0.499684
805 1 0.248564 0.492042 0.378697
817 1 0.24308 0.494488 0.498475
220 1 0.00187085 0.447598 0.443081
732 1 0.248832 0.434591 0.442285
230 1 0.180032 0.440335 0.496884
227 1 0.0646941 0.377404 0.56948
231 1 0.188449 0.372852 0.554081
234 1 0.0629962 0.43666 0.634018
236 1 0.185735 0.436471 0.621763
235 1 0.128632 0.378082 0.623894
232 1 0.131211 0.436801 0.563633
740 1 0.251187 0.430938 0.555481
309 1 0.121961 0.497168 0.501897
319 1 0.124774 0.497526 0.626049
311 1 0.187925 0.497146 0.568092
233 1 -0.00359188 0.377468 0.629865
226 1 0.0640978 0.441672 0.506142
237 1 0.0588252 0.372117 0.690471
239 1 0.193578 0.378311 0.688706
246 1 0.185848 0.448619 0.750393
248 1 0.124015 0.441693 0.810247
242 1 0.0693742 0.436203 0.748997
241 1 -0.00172806 0.371379 0.753054
240 1 0.124103 0.440149 0.688004
247 1 0.18616 0.376636 0.815366
243 1 0.0630133 0.374753 0.808853
245 1 0.127827 0.371701 0.755482
756 1 0.244181 0.441954 0.806828
750 1 0.252533 0.442035 0.68981
244 1 0.00747653 0.435738 0.808799
194 1 0.0614398 0.436958 0.997806
253 1 0.123456 0.375632 0.876824
256 1 0.130877 0.434275 0.934725
250 1 0.0598129 0.436245 0.878313
254 1 0.187321 0.43733 0.872821
251 1 0.0580873 0.367565 0.941003
255 1 0.188754 0.37579 0.93366
198 1 0.18634 0.43382 0.994414
197 1 0.12816 0.376498 0.990922
261 1 0.126323 0.49249 0.996529
252 1 0.000548646 0.444961 0.938017
266 1 0.0659253 0.626091 0.0612545
270 1 0.068957 0.560949 0.118911
264 1 0.123366 0.555332 0.0534374
268 1 0.193454 0.627091 0.0613237
272 1 0.192964 0.567065 0.120112
274 1 0.130836 0.619376 0.118647
273 1 0.00260791 0.626693 0.121218
269 1 0.0029726 0.502793 0.126729
271 1 0.126526 0.500179 0.117581
260 1 0.00413604 0.559083 0.0669715
262 1 0.194703 0.561035 0.00958081
258 1 0.0571993 0.559181 0.00310282
265 1 0.00166682 0.624825 0.00430238
267 1 0.12849 0.62548 0.00210483
282 1 0.0593139 0.554652 0.243593
278 1 0.124938 0.556116 0.184812
290 1 0.0592855 0.612944 0.303148
286 1 0.184102 0.560864 0.244231
292 1 0.183799 0.619756 0.310116
279 1 0.0615934 0.620738 0.192297
280 1 0.192566 0.623792 0.187849
291 1 0.123187 0.627772 0.2479
288 1 0.120557 0.557951 0.299886
284 1 -0.000144416 0.557046 0.305901
796 1 0.238904 0.559808 0.311109
801 1 0.247007 0.627942 0.252671
788 1 0.243557 0.556163 0.182626
294 1 0.0637824 0.558247 0.363073
304 1 0.181148 0.619346 0.440347
298 1 0.192175 0.5566 0.378024
303 1 0.127096 0.612285 0.369987
302 1 0.0637254 0.623032 0.438513
300 1 0.119335 0.563415 0.443428
301 1 0.0064253 0.615791 0.367684
293 1 0.00685907 0.49999 0.37435
295 1 0.0595063 0.505703 0.437097
813 1 0.24913 0.618182 0.383014
808 1 0.247494 0.561465 0.443489
320 1 0.193633 0.556479 0.622259
820 1 0.249734 0.556134 0.55377
312 1 0.13239 0.560634 0.562651
318 1 0.0622821 0.565563 0.627736
322 1 0.126277 0.628784 0.61655
314 1 0.0602316 0.623736 0.563043
316 1 0.186629 0.622471 0.56168
315 1 0.123565 0.620602 0.500532
306 1 0.0619813 0.557133 0.505101
307 1 0.0621906 0.503481 0.573374
313 1 0.00108188 0.63037 0.503724
305 1 0.00229526 0.505975 0.502574
310 1 0.186267 0.563359 0.502874
330 1 0.0701134 0.572363 0.740709
326 1 0.125296 0.56053 0.677991
339 1 0.132102 0.629261 0.739623
323 1 0.0564478 0.504878 0.691861
327 1 0.0694658 0.628977 0.682296
328 1 0.191503 0.623918 0.685278
340 1 0.18928 0.631847 0.814886
336 1 0.125158 0.568124 0.807686
334 1 0.179185 0.562192 0.743676
338 1 0.0597125 0.628092 0.807861
325 1 0.187246 0.501443 0.684315
335 1 0.185139 0.50626 0.812564
331 1 0.0720734 0.505305 0.813711
332 1 2.16929e-05 0.567572 0.818
333 1 0.120481 0.506715 0.745303
844 1 0.246753 0.56515 0.810084
337 1 0.00104902 0.624649 0.745371
849 1 0.242077 0.621993 0.752387
329 1 0.000330272 0.496382 0.754052
342 1 0.0671812 0.565909 0.872016
347 1 0.191719 0.50298 0.94235
346 1 0.174543 0.566087 0.874266
343 1 0.0534874 0.504196 0.936874
351 1 0.124959 0.632405 0.87085
348 1 0.127065 0.55888 0.94132
350 1 0.0690704 0.620393 0.935448
352 1 0.180452 0.626576 0.935625
345 1 0.121972 0.502113 0.87793
344 1 0.00468066 0.571503 0.935339
853 1 0.243769 0.502263 0.872505
370 1 0.185791 0.819691 0.127872
359 1 0.0656645 0.753751 0.062679
356 1 0.123039 0.685381 0.0630788
363 1 0.182478 0.756781 0.0633952
366 1 0.179657 0.684547 0.132812
368 1 0.0618052 0.814164 0.122687
365 1 0.05983 0.689855 0.121152
364 1 0.122548 0.821656 0.0664667
369 1 0.125904 0.747959 0.134483
361 1 0.125425 0.741776 -0.000568181
866 1 0.251876 0.691984 0.0604048
872 1 0.248062 0.817687 0.0677087
869 1 0.246835 0.753825 0.00173717
362 1 0.187265 0.821269 0.00763762
358 1 0.0585735 0.816975 0.00706806
383 1 0.0695713 0.755182 0.31073
372 1 0.117139 0.684787 0.19227
387 1 0.185128 0.750238 0.32578
373 1 0.0600907 0.746474 0.187172
382 1 0.0581181 0.812753 0.243238
388 1 0.134607 0.811368 0.317183
376 1 0.126429 0.81244 0.1879
375 1 0.184626 0.741831 0.190189
386 1 0.192336 0.813992 0.261281
380 1 0.120431 0.68806 0.315446
377 1 0.0469236 0.683944 0.247633
385 1 0.129193 0.759736 0.251683
379 1 0.185928 0.684011 0.257135
378 1 0.00432056 0.676723 0.313191
893 1 0.245336 0.749201 0.254004
896 1 0.248396 0.80545 0.318817
890 1 0.246663 0.694195 0.316319
886 1 0.239877 0.812733 0.189908
389 1 0.0574767 0.694317 0.373045
397 1 0.123287 0.752148 0.37775
391 1 0.179529 0.680263 0.378414
394 1 0.0460761 0.813635 0.380385
398 1 0.189296 0.815699 0.380438
399 1 0.181241 0.740265 0.43107
392 1 0.117823 0.688877 0.440159
400 1 0.126783 0.821199 0.436266
395 1 0.0644563 0.752591 0.444456
406 1 0.0686664 0.820353 0.494985
905 1 0.252998 0.75092 0.38177
908 1 0.247679 0.812323 0.436776
902 1 0.246837 0.685397 0.431235
390 1 0.00632183 0.68343 0.439141
410 1 0.187649 0.81996 0.491871
403 1 0.194714 0.68415 0.492435
404 1 0.129418 0.686825 0.559416
920 1 0.244903 0.816875 0.559599
407 1 0.0656927 0.759487 0.554612
412 1 0.130482 0.813795 0.549519
411 1 0.188776 0.752619 0.560212
418 1 0.186385 0.80887 0.624247
413 1 0.0679669 0.689285 0.620642
414 1 0.184891 0.684367 0.626101
416 1 0.0611565 0.80979 0.623958
417 1 0.126513 0.750012 0.61819
402 1 0.00227659 0.685216 0.56693
409 1 0.129597 0.752072 0.496511
401 1 0.0645735 0.684077 0.501786
914 1 0.244419 0.684833 0.556524
405 1 0.00123272 0.743691 0.503342
435 1 0.18855 0.746865 0.81833
433 1 0.135288 0.751047 0.752157
420 1 0.125253 0.693118 0.684945
427 1 0.187169 0.684638 0.746551
430 1 0.0530651 0.81085 0.752491
436 1 0.128059 0.81629 0.807251
421 1 0.0621588 0.753796 0.68178
424 1 0.123188 0.817011 0.684003
423 1 0.201282 0.744624 0.683478
434 1 0.193302 0.805011 0.750143
425 1 0.0685415 0.686056 0.750166
431 1 0.060318 0.751083 0.807757
428 1 0.124392 0.69386 0.813497
422 1 0.00157929 0.803247 0.684651
429 1 0.00270942 0.742155 0.748167
938 1 0.250951 0.687402 0.81143
437 1 0.0638801 0.683676 0.876936
439 1 0.189994 0.683207 0.875103
442 1 0.068217 0.803548 0.873704
447 1 0.196857 0.744943 0.93893
445 1 0.12679 0.745419 0.875983
446 1 0.184182 0.810245 0.876093
448 1 0.129043 0.823093 0.935748
440 1 0.126572 0.687529 0.93696
443 1 0.0731762 0.754012 0.936236
357 1 0.00427673 0.74262 0.994206
355 1 0.192779 0.682033 0.998508
956 1 0.242865 0.814677 0.936453
438 1 0.00147584 0.681134 0.935245
444 1 0.00773862 0.813969 0.9345
353 1 0.0674822 0.683018 0.995922
451 1 0.0603772 0.882265 0.0605178
452 1 0.000353457 0.945707 0.0618335
455 1 0.181428 0.890143 0.0655097
460 1 0.181634 0.942748 0.131268
458 1 0.0648511 0.936224 0.124609
459 1 0.124715 0.87772 0.136563
456 1 0.116338 0.942356 0.0669042
453 1 0.124466 0.87943 0.00627087
969 1 0.243366 0.884845 0.12119
961 1 0.244196 0.884005 0.010178
13 1 0.00511696 1.00456 0.120998
457 1 0.00156225 0.879952 0.123102
450 1 0.0619218 0.943307 0.00344697
454 1 0.188062 0.943731 0.0032619
461 1 0.0590099 0.872623 0.185907
472 1 0.12292 0.935787 0.308512
463 1 0.189075 0.87466 0.189344
466 1 0.0642449 0.933903 0.250058
464 1 0.125228 0.928897 0.199604
470 1 0.188766 0.928542 0.260222
467 1 0.0674183 0.861946 0.314716
469 1 0.124433 0.864571 0.251877
471 1 0.1946 0.872647 0.318673
537 1 0.250921 0.994342 0.251232
974 1 0.244486 0.938951 0.186803
462 1 0.00645544 0.939285 0.189124
25 1 0.00600818 0.994555 0.254033
468 1 -0.00142152 0.937195 0.315593
29 1 0.12747 0.99681 0.248341
21 1 0.188254 1.0003 0.187111
477 1 0.129114 0.875504 0.375267
485 1 0.126206 0.883205 0.495
474 1 0.0623743 0.927347 0.377863
478 1 0.197551 0.940444 0.377549
480 1 0.134037 0.939958 0.427468
475 1 0.04926 0.8733 0.438703
479 1 0.187438 0.879658 0.436107
486 1 0.188934 0.940393 0.496744
39 1 0.0634961 0.992679 0.426039
482 1 0.0572658 0.952328 0.495746
55 1 0.179817 0.993833 0.568778
483 1 0.059571 0.878681 0.55958
487 1 0.186722 0.879467 0.553264
492 1 0.181429 0.932233 0.623607
490 1 0.067462 0.930644 0.627298
491 1 0.126706 0.871113 0.616589
488 1 0.119942 0.93902 0.55723
573 1 0.247723 0.995368 0.627335
63 1 0.120759 0.990915 0.625809
996 1 0.243445 0.939487 0.56289
1001 1 0.244011 0.874162 0.624924
51 1 0.0608998 0.997052 0.56788
503 1 0.184882 0.879781 0.814939
493 1 0.0638175 0.872511 0.689247
501 1 0.118828 0.871574 0.748205
495 1 0.185074 0.87053 0.695575
498 1 0.0595389 0.930643 0.746888
496 1 0.125879 0.931109 0.688174
1006 1 0.24463 0.935072 0.686658
502 1 0.187423 0.94068 0.748701
504 1 0.121956 0.935999 0.808321
499 1 0.0559413 0.876345 0.806555
69 1 0.18052 0.99132 0.684988
75 1 0.0671928 0.999005 0.813009
1009 1 0.246751 0.869375 0.750003
494 1 0.00153838 0.937251 0.681579
67 1 0.0659164 0.990311 0.68528
512 1 0.128126 0.943505 0.942846
509 1 0.124338 0.882662 0.876722
506 1 0.0608097 0.93992 0.879741
1017 1 0.241483 0.875967 0.870855
510 1 0.18342 0.943496 0.873676
511 1 0.190383 0.880995 0.94061
507 1 0.0667359 0.885252 0.93889
1020 1 0.248253 0.93688 0.942868
530 1 0.376021 0.123916 0.124099
1028 1 0.494055 0.0567426 0.0636446
520 1 0.367821 0.0658024 0.0620829
528 1 0.44277 0.0665484 0.127625
526 1 0.310983 0.0634996 0.139263
522 1 0.30913 0.126466 0.0654235
524 1 0.443331 0.121799 0.0625585
517 1 0.372934 -0.0019076 0.0059382
515 1 0.312286 0.00709078 0.0649145
518 1 0.436544 0.0593287 0.00488788
1041 1 0.497637 0.130152 0.130711
521 1 0.252626 0.13064 0.00552977
529 1 0.255146 0.131648 0.128143
519 1 0.433162 0.00151374 0.0677102
525 1 0.250918 0.00462821 0.132744
527 1 0.368811 0.00482643 0.127557
523 1 0.37664 0.128037 0.00998871
538 1 0.308646 0.0610831 0.254336
546 1 0.318855 0.121314 0.314056
534 1 0.380165 0.056052 0.194749
542 1 0.44427 0.0610213 0.247909
544 1 0.381615 0.0601692 0.311658
535 1 0.314789 0.127637 0.196952
547 1 0.379395 0.11386 0.253532
536 1 0.433333 0.126611 0.187145
548 1 0.440644 0.125896 0.315675
540 1 0.249891 0.0654433 0.310024
545 1 0.256618 0.132917 0.253669
543 1 0.441859 0.00462269 0.312864
550 1 0.321072 0.0629494 0.378699
554 1 0.437918 0.0571159 0.3768
556 1 0.377405 0.0624353 0.439765
558 1 0.313841 0.122607 0.440703
559 1 0.378261 0.12677 0.373805
560 1 0.434441 0.126995 0.444057
551 1 0.316763 0.00198028 0.443143
552 1 0.255061 0.0639146 0.449616
557 1 0.247148 0.127339 0.373734
1069 1 0.50099 0.123004 0.36856
555 1 0.443156 -0.00140149 0.441867
549 1 0.257481 0.0140839 0.383214
566 1 0.439143 0.0640168 0.495381
568 1 0.375694 0.0543962 0.566142
1089 1 0.497275 0.125928 0.624712
578 1 0.373672 0.124007 0.624732
575 1 0.369335 0.00323122 0.638328
570 1 0.315754 0.122032 0.564052
572 1 0.442235 0.127638 0.559613
574 1 0.309503 0.0644294 0.636969
576 1 0.432915 0.0691276 0.626387
567 1 0.437986 0.00048098 0.560807
571 1 0.376526 0.126402 0.500693
1076 1 0.494215 0.0639389 0.555596
1085 1 0.495948 0.00542418 0.619917
563 1 0.305704 0.00245436 0.56929
565 1 0.375561 0.0018527 0.503696
562 1 0.31252 0.0654467 0.5066
586 1 0.308931 0.0641755 0.751577
582 1 0.377781 0.0674983 0.690577
590 1 0.445421 0.0598337 0.753273
583 1 0.310721 0.123385 0.689871
596 1 0.436881 0.127558 0.804968
595 1 0.375734 0.130798 0.747909
584 1 0.434403 0.131496 0.6862
594 1 0.315494 0.120654 0.812977
592 1 0.372493 0.0624635 0.825453
1092 1 0.493968 0.0619759 0.683501
588 1 0.253125 0.0612362 0.813045
1105 1 0.495306 0.128235 0.748475
593 1 0.254951 0.122479 0.756631
589 1 0.371219 0.00288751 0.757244
579 1 0.316267 0.006432 0.696792
581 1 0.434966 0.00421406 0.694042
604 1 0.375022 0.0573178 0.936225
598 1 0.305234 0.0648924 0.882026
606 1 0.303646 0.134163 0.936258
602 1 0.436981 0.0535609 0.873939
607 1 0.376538 0.125872 0.879779
608 1 0.441422 0.122023 0.941233
599 1 0.307661 -0.000163442 0.947443
1112 1 0.502831 0.0530733 0.934067
1117 1 0.498019 0.123431 0.874823
514 1 0.318846 0.0660328 0.997295
615 1 0.318214 0.250369 0.0678478
612 1 0.382094 0.186245 0.0683496
619 1 0.433256 0.251019 0.0619093
624 1 0.313658 0.318953 0.127182
620 1 0.372469 0.3177 0.0645426
622 1 0.437073 0.1829 0.129113
626 1 0.441025 0.309143 0.123607
621 1 0.316672 0.189554 0.123363
625 1 0.375555 0.258064 0.128931
614 1 0.31781 0.311712 0.00287423
617 1 0.373271 0.24413 0.00213609
613 1 0.248947 0.253116 0.00104065
616 1 0.258332 0.311553 0.0599053
1128 1 0.496901 0.30771 0.0626761
623 1 0.252933 0.252598 0.119562
609 1 0.314997 0.187816 0.00999925
629 1 0.316198 0.250508 0.186578
639 1 0.309677 0.246883 0.317021
628 1 0.376779 0.190835 0.183516
635 1 0.433864 0.182906 0.251316
631 1 0.432785 0.251784 0.190832
642 1 0.441805 0.311097 0.252321
641 1 0.379879 0.254119 0.251851
638 1 0.308831 0.311641 0.260702
632 1 0.371468 0.313103 0.189136
644 1 0.375585 0.308541 0.317535
633 1 0.31833 0.192568 0.251663
636 1 0.381574 0.190364 0.321049
643 1 0.43661 0.253986 0.311329
634 1 0.24891 0.187383 0.315445
1139 1 0.497374 0.18976 0.191298
627 1 0.25618 0.192871 0.189021
1149 1 0.491987 0.2478 0.250102
630 1 0.254416 0.307081 0.189928
637 1 0.257952 0.24952 0.251667
645 1 0.314036 0.182599 0.382309
653 1 0.372117 0.245929 0.381058
647 1 0.440612 0.192125 0.380064
650 1 0.309347 0.307024 0.371982
654 1 0.437719 0.31318 0.37486
656 1 0.367627 0.309926 0.436796
652 1 0.254577 0.314302 0.441332
648 1 0.370183 0.184295 0.440589
655 1 0.434609 0.250815 0.437801
651 1 0.310372 0.249361 0.438098
657 1 0.308219 0.186325 0.502663
665 1 0.367243 0.248542 0.497307
666 1 0.4326 0.31473 0.492674
661 1 0.255395 0.253714 0.500159
1170 1 0.499226 0.191002 0.564609
660 1 0.374619 0.187903 0.5648
667 1 0.4367 0.25744 0.564782
673 1 0.37016 0.247443 0.622856
669 1 0.306214 0.18449 0.625509
670 1 0.436349 0.18636 0.623094
663 1 0.308573 0.248098 0.56549
668 1 0.383117 0.31226 0.567432
674 1 0.432019 0.314295 0.627766
672 1 0.315191 0.310772 0.62375
1183 1 0.491909 0.253988 0.63166
664 1 0.254783 0.306396 0.568129
658 1 0.249229 0.183447 0.568291
1176 1 0.492088 0.318978 0.570549
659 1 0.435228 0.192993 0.501147
662 1 0.312945 0.314735 0.501777
671 1 0.251397 0.246012 0.624992
1173 1 0.492684 0.254446 0.506543
681 1 0.315384 0.182533 0.755383
677 1 0.310788 0.252128 0.684262
689 1 0.372093 0.254282 0.749808
676 1 0.365718 0.185182 0.68766
679 1 0.432026 0.250297 0.689859
686 1 0.318111 0.316147 0.761879
680 1 0.368913 0.30952 0.688532
690 1 0.436064 0.307478 0.752922
684 1 0.374728 0.183602 0.808396
683 1 0.433065 0.192789 0.746688
691 1 0.44055 0.254346 0.814894
687 1 0.313129 0.243615 0.814987
692 1 0.378093 0.315067 0.818634
678 1 0.247786 0.319367 0.690935
1200 1 0.501488 0.313952 0.816157
685 1 0.254287 0.249787 0.749504
1187 1 0.49804 0.183995 0.689548
675 1 0.251482 0.185415 0.693754
688 1 0.253386 0.314912 0.809056
693 1 0.311651 0.188499 0.87574
695 1 0.448379 0.185589 0.875535
703 1 0.439774 0.246096 0.9403
698 1 0.318454 0.310146 0.874417
701 1 0.38454 0.252066 0.876942
702 1 0.439576 0.313418 0.873166
694 1 0.247943 0.198768 0.938893
696 1 0.374044 0.187226 0.941277
699 1 0.317326 0.248428 0.934624
704 1 0.367425 0.311618 0.936184
697 1 0.254057 0.259487 0.872287
611 1 0.435526 0.182775 0.992482
1212 1 0.495381 0.318211 0.93363
700 1 0.254781 0.314266 0.929778
618 1 0.425254 0.30876 0.994825
1125 1 0.50097 0.261238 0.998116
707 1 0.310665 0.379883 0.0705365
711 1 0.436881 0.375621 0.0731421
714 1 0.311084 0.446132 0.127772
716 1 0.441386 0.439845 0.130189
712 1 0.383005 0.439559 0.0676246
715 1 0.374131 0.377944 0.128105
1293 1 0.495899 0.504939 0.13631
709 1 0.379494 0.378918 0.00200066
773 1 0.390478 0.498669 0.00689333
1220 1 0.499569 0.436315 0.0644019
1217 1 0.496762 0.370629 0.00195815
706 1 0.317606 0.435005 0.00763887
771 1 0.317302 0.496735 0.061606
1225 1 0.498799 0.375561 0.126413
717 1 0.310598 0.369739 0.190004
719 1 0.438596 0.368022 0.187812
722 1 0.3162 0.432379 0.256681
726 1 0.443432 0.440395 0.256646
720 1 0.372274 0.436052 0.189585
728 1 0.38081 0.439623 0.314803
723 1 0.317306 0.377518 0.314789
797 1 0.369679 0.495034 0.256121
725 1 0.376816 0.370008 0.249464
727 1 0.43371 0.369587 0.312449
718 1 0.252322 0.442131 0.188906
789 1 0.436243 0.493338 0.194746
738 1 0.319132 0.440685 0.498741
733 1 0.378217 0.374701 0.379482
735 1 0.440553 0.37336 0.435991
730 1 0.318606 0.437485 0.370711
734 1 0.437332 0.431767 0.37399
731 1 0.314263 0.382952 0.435802
736 1 0.386552 0.442183 0.438869
737 1 0.256236 0.375835 0.495897
809 1 0.378211 0.499234 0.37637
807 1 0.306695 0.496805 0.438872
741 1 0.366324 0.373523 0.498863
729 1 0.257282 0.37216 0.370768
739 1 0.309295 0.377347 0.560975
743 1 0.432918 0.371823 0.556926
748 1 0.435113 0.439443 0.631512
747 1 0.378237 0.372308 0.626562
744 1 0.377964 0.440408 0.561064
746 1 0.316997 0.432125 0.631447
1257 1 0.494386 0.373444 0.632772
831 1 0.371666 0.494638 0.625494
819 1 0.313204 0.500814 0.557424
1252 1 0.499947 0.431133 0.570963
823 1 0.438309 0.497889 0.560117
1249 1 0.49788 0.375691 0.501338
745 1 0.247596 0.371408 0.616992
829 1 0.262278 0.484377 0.62271
742 1 0.439161 0.43979 0.502638
749 1 0.313442 0.37149 0.686
751 1 0.435521 0.370388 0.692114
760 1 0.381902 0.436873 0.819075
752 1 0.369705 0.438247 0.69108
758 1 0.435587 0.440121 0.747173
753 1 0.257354 0.380875 0.748719
754 1 0.314025 0.440458 0.74759
755 1 0.319186 0.372826 0.823311
757 1 0.376755 0.375381 0.748825
759 1 0.434759 0.377619 0.814388
847 1 0.442981 0.501222 0.803753
1265 1 0.489878 0.377046 0.754806
1262 1 0.494179 0.435315 0.688819
1268 1 0.497698 0.435561 0.816419
845 1 0.375009 0.494304 0.747747
765 1 0.380358 0.379924 0.883168
761 1 0.251805 0.373052 0.87125
768 1 0.374808 0.446488 0.938405
762 1 0.304637 0.442775 0.873631
766 1 0.43808 0.445657 0.877656
767 1 0.442839 0.375914 0.94119
763 1 0.313057 0.385764 0.932304
705 1 0.25012 0.368382 0.999055
764 1 0.248274 0.441491 0.941081
710 1 0.449011 0.437796 0.996979
780 1 0.433396 0.619488 0.0622033
776 1 0.37893 0.562977 0.0622482
784 1 0.430646 0.558284 0.132476
783 1 0.374859 0.499732 0.127767
786 1 0.373997 0.622058 0.13223
778 1 0.314654 0.630956 0.0587458
782 1 0.312764 0.56243 0.129028
779 1 0.374488 0.628983 0.00430712
775 1 0.438563 0.501356 0.0732056
772 1 0.261026 0.566433 0.0617213
785 1 0.25165 0.627522 0.118545
1297 1 0.491317 0.621692 0.127102
1284 1 0.500766 0.566741 0.0670363
774 1 0.444814 0.558636 0.00264705
781 1 0.253432 0.504321 0.116656
769 1 0.259329 0.499987 0.00104536
770 1 0.31962 0.561316 0.00161645
777 1 0.257193 0.621732 0.00470435
1289 1 0.497531 0.626455 0.0045572
802 1 0.302342 0.617781 0.321768
790 1 0.367829 0.56174 0.191118
800 1 0.366422 0.557158 0.320986
791 1 0.310866 0.624943 0.183762
792 1 0.437712 0.61895 0.192301
804 1 0.437178 0.631197 0.309336
803 1 0.376006 0.618283 0.25157
794 1 0.306796 0.559214 0.249277
798 1 0.427247 0.558229 0.253009
1300 1 0.499366 0.565217 0.190112
795 1 0.299085 0.501856 0.310997
799 1 0.437043 0.503299 0.320821
1308 1 0.493605 0.56987 0.303668
787 1 0.311519 0.504544 0.192031
814 1 0.312948 0.620173 0.438378
806 1 0.309392 0.55922 0.380816
811 1 0.440968 0.509664 0.436113
810 1 0.440393 0.571138 0.374032
816 1 0.434189 0.623117 0.437684
815 1 0.372246 0.620658 0.374297
812 1 0.369893 0.562298 0.430748
1325 1 0.498387 0.636364 0.377218
821 1 0.37052 0.508244 0.494766
1337 1 0.496396 0.619001 0.498545
818 1 0.3074 0.559028 0.496653
825 1 0.24809 0.619144 0.49614
827 1 0.375096 0.624099 0.497518
832 1 0.42582 0.557334 0.615463
824 1 0.36998 0.565425 0.55976
828 1 0.437523 0.620037 0.555604
830 1 0.313959 0.558942 0.625362
834 1 0.375573 0.628267 0.621966
826 1 0.309422 0.629488 0.55454
1341 1 0.496469 0.507705 0.621242
822 1 0.441404 0.559183 0.499882
1332 1 0.498665 0.567682 0.56313
1345 1 0.499576 0.629144 0.62362
833 1 0.254972 0.619647 0.613411
843 1 0.314254 0.501581 0.815383
838 1 0.374875 0.560548 0.689486
852 1 0.430521 0.629372 0.805026
850 1 0.31546 0.619867 0.809695
846 1 0.435352 0.564737 0.748577
839 1 0.319326 0.621684 0.68214
840 1 0.437755 0.61615 0.687066
842 1 0.312418 0.559193 0.754093
848 1 0.376788 0.55853 0.813956
851 1 0.370363 0.624686 0.748712
835 1 0.3139 0.504624 0.689185
841 1 0.251616 0.499704 0.748951
836 1 0.252087 0.561471 0.683528
837 1 0.440392 0.505265 0.688654
854 1 0.310102 0.566171 0.874025
860 1 0.381124 0.563337 0.944111
858 1 0.444872 0.564064 0.87201
863 1 0.380233 0.620858 0.87165
855 1 0.30824 0.497547 0.933278
862 1 0.320669 0.622894 0.936577
864 1 0.442404 0.623136 0.943261
856 1 0.255777 0.57558 0.939476
1368 1 0.501709 0.563521 0.938417
859 1 0.43998 0.504222 0.942489
857 1 0.381487 0.50327 0.876686
861 1 0.253419 0.627197 0.866736
868 1 0.37453 0.694443 0.0554341
875 1 0.434793 0.748733 0.0628702
880 1 0.300942 0.81864 0.12893
882 1 0.439984 0.810102 0.128411
871 1 0.306586 0.754846 0.0596842
878 1 0.433248 0.692098 0.119858
876 1 0.36731 0.812017 0.0661049
881 1 0.37723 0.752015 0.1253
877 1 0.316972 0.696594 0.12553
1391 1 0.496939 0.749455 0.119469
874 1 0.435253 0.806553 0.00421831
1378 1 0.495199 0.681297 0.0664896
1384 1 0.495379 0.817093 0.0617258
879 1 0.247991 0.75221 0.12398
870 1 0.304972 0.823961 0.00768004
1381 1 0.497738 0.752605 -0.000224764
889 1 0.318282 0.684528 0.243665
900 1 0.366092 0.80705 0.318649
897 1 0.373323 0.750262 0.25473
884 1 0.380189 0.685622 0.191847
887 1 0.446174 0.747469 0.181869
898 1 0.433415 0.809914 0.244846
885 1 0.312259 0.752308 0.189661
888 1 0.374025 0.818033 0.185333
892 1 0.378332 0.688102 0.311166
891 1 0.443073 0.688118 0.246392
899 1 0.43326 0.763106 0.312651
894 1 0.307241 0.809957 0.253466
895 1 0.309876 0.747366 0.309856
883 1 0.251159 0.686585 0.192253
1405 1 0.500888 0.75676 0.251747
901 1 0.315239 0.69249 0.376436
911 1 0.438974 0.750489 0.446062
909 1 0.36851 0.751912 0.377975
903 1 0.43649 0.697272 0.381794
906 1 0.308509 0.813568 0.38098
910 1 0.441347 0.809727 0.38041
912 1 0.380649 0.811876 0.440048
907 1 0.313268 0.759542 0.441759
904 1 0.376219 0.683879 0.432524
1414 1 0.499674 0.685392 0.440418
1417 1 0.503867 0.7553 0.378078