ITEM: TIMESTEP
100000
ITEM: NUMBER OF ATOMS
2048
ITEM: BOX BOUNDS pp pp pp
0.0000000000000000e+00 1.1093780389610155e+01
0.0000000000000000e+00 1.1093780389610155e+01
0.0000000000000000e+00 1.1093780389610155e+01
ITEM: ATOMS id type xs ys zs
4 1 0.00163402 0.0607282 0.063086
8 1 0.126429 0.0652208 0.0593716
7 1 0.185489 0.00332048 0.0588933
9 1 0.00123437 0.12697 0.00165173
10 1 0.0641405 0.125502 0.0600351
11 1 0.12321 0.128027 0.00095166
12 1 0.186948 0.127532 0.0612075
13 1 0.000733421 0.00253232 0.130108
14 1 0.0636535 0.0623875 0.124664
15 1 0.124782 6.52433e-06 0.124577
16 1 0.185966 0.0598321 0.119956
17 1 0.00406152 0.127512 0.123193
18 1 0.126488 0.127741 0.123889
20 1 0.0016084 0.0618215 0.18585
19 1 0.0637041 0.000291243 0.191207
22 1 0.12564 0.0593509 0.185099
537 1 0.248412 9.03105e-05 0.247926
21 1 0.189831 0.0013858 0.188403
23 1 0.0655713 0.122508 0.187182
24 1 0.185611 0.119111 0.184061
545 1 0.245047 0.124351 0.24575
26 1 0.0593371 0.0623405 0.251297
28 1 0.00120861 0.0610537 0.317116
32 1 0.122634 0.0639828 0.313062
30 1 0.185598 0.0644263 0.254526
31 1 0.184961 0.00337957 0.311958
29 1 0.12514 0.00248587 0.253675
33 1 0.00118651 0.123578 0.254734
34 1 0.0631908 0.124025 0.31598
35 1 0.126203 0.126111 0.252791
36 1 0.185035 0.129482 0.313644
38 1 0.0639554 0.0586144 0.377257
41 1 0.123146 0.000416605 0.37454
42 1 0.187971 0.0654701 0.372623
549 1 0.24545 0.00258321 0.373078
45 1 0.00176192 0.123614 0.373704
47 1 0.126181 0.124555 0.375174
557 1 0.249643 0.126521 0.371887
50 1 0.0614704 0.0639914 0.495088
39 1 0.0628078 0.0012459 0.439879
44 1 0.125275 0.061712 0.438113
54 1 0.18682 0.0650923 0.49995
43 1 0.184332 0.00163141 0.435894
561 1 0.248391 0.00180671 0.498812
46 1 0.0595995 0.125303 0.438655
59 1 0.125487 0.127522 0.498277
48 1 0.188321 0.127872 0.436149
56 1 0.124632 0.0641114 0.558421
51 1 0.0639977 0.00418273 0.559682
53 1 0.125525 0.000925889 0.502033
57 1 0.00341125 0.129898 0.502759
58 1 0.0657225 0.128663 0.561887
60 1 0.188495 0.12221 0.562058
569 1 0.245301 0.125828 0.501333
61 1 0.00246315 0.000235605 0.620039
62 1 0.0669678 0.062826 0.617988
64 1 0.187205 0.0586806 0.623392
63 1 0.125739 0.000298242 0.630562
573 1 0.249887 0.000172713 0.622182
65 1 0.00328212 0.124751 0.625946
66 1 0.126429 0.127938 0.624267
577 1 0.247061 0.127262 0.621432
68 1 0.0041013 0.0584856 0.688217
70 1 0.127606 0.0615742 0.687568
78 1 0.186514 0.0636168 0.748721
580 1 0.249246 0.0653936 0.686158
585 1 0.245658 0.000711 0.747592
71 1 0.0640861 0.122691 0.68635
72 1 0.18479 0.124476 0.684342
593 1 0.247326 0.125529 0.749865
74 1 0.0658728 0.0582909 0.750014
80 1 0.126044 0.0603936 0.812595
588 1 0.248593 0.0628741 0.809177
82 1 0.0639997 0.118134 0.811246
83 1 0.129217 0.125966 0.75461
84 1 0.188145 0.121457 0.811389
86 1 0.0607101 0.0621562 0.874018
90 1 0.188384 0.065765 0.875346
93 1 0.000434904 0.125757 0.875912
95 1 0.127254 0.130778 0.872444
605 1 0.248869 0.126445 0.873368
2 1 0.0637511 0.0659086 0.997572
92 1 0.125832 0.0662993 0.938041
91 1 0.184134 0.00226654 0.93759
6 1 0.189606 0.0625038 0.997215
513 1 0.248736 0.00141608 0.994687
94 1 0.0589989 0.125215 0.933427
96 1 0.187758 0.125283 0.937831
98 1 0.00375187 0.190606 0.0627986
97 1 0.0613231 0.188421 0.0012902
100 1 0.124379 0.190249 0.0615319
107 1 0.183643 0.247984 0.0629705
610 1 0.24743 0.19079 0.0656446
103 1 0.061509 0.254232 0.0588278
108 1 0.120653 0.312765 0.064795
106 1 0.185875 0.315279 0.00387485
616 1 0.246846 0.311162 0.0642087
109 1 0.0649814 0.190107 0.121676
110 1 0.190883 0.185823 0.128065
112 1 0.0595569 0.312876 0.125311
114 1 0.185764 0.315913 0.123591
113 1 0.129161 0.252419 0.128193
623 1 0.246134 0.252954 0.131037
117 1 0.0595638 0.248407 0.187558
121 1 0.0621973 0.186321 0.248293
116 1 0.123386 0.188556 0.187121
627 1 0.249065 0.18788 0.190092
126 1 0.0593474 0.314401 0.249589
118 1 0.00121851 0.311083 0.188943
120 1 0.124515 0.31304 0.190881
119 1 0.187148 0.253364 0.19137
125 1 0.000200423 0.248595 0.255642
122 1 0.000305457 0.188555 0.318356
129 1 0.123669 0.247228 0.251728
124 1 0.124301 0.185559 0.313895
127 1 0.0625247 0.24732 0.311131
123 1 0.189334 0.1931 0.253444
634 1 0.246825 0.190833 0.315896
132 1 0.122791 0.31658 0.311377
131 1 0.182093 0.251407 0.314799
130 1 0.187112 0.318249 0.251399
133 1 0.0637478 0.187587 0.378461
141 1 0.120584 0.249323 0.376637
135 1 0.183788 0.192061 0.377668
138 1 0.0582153 0.309077 0.374442
142 1 0.187793 0.315524 0.371229
649 1 0.248877 0.255378 0.37294
134 1 0.00213876 0.188109 0.439
136 1 0.122875 0.191583 0.44119
143 1 0.186579 0.249944 0.438083
646 1 0.244883 0.185089 0.438471
140 1 0.00275017 0.310581 0.441804
139 1 0.0636832 0.253476 0.440586
144 1 0.127977 0.311745 0.436346
652 1 0.248651 0.31643 0.43606
146 1 0.00210837 0.184214 0.565298
151 1 0.064432 0.248149 0.56704
145 1 0.0653207 0.191756 0.503758
148 1 0.128846 0.185965 0.563041
147 1 0.186054 0.189025 0.504335
658 1 0.248106 0.185619 0.562154
150 1 0.063468 0.30997 0.504099
156 1 0.126499 0.314662 0.563584
155 1 0.18685 0.252728 0.563157
153 1 0.125005 0.250183 0.503335
154 1 0.185477 0.308611 0.501869
664 1 0.24838 0.310714 0.56458
157 1 0.0612766 0.187589 0.627261
159 1 2.38449e-05 0.246465 0.62527
158 1 0.186695 0.189898 0.624966
161 1 0.129011 0.248793 0.627779
160 1 0.0660394 0.313059 0.625981
162 1 0.191201 0.311511 0.628883
169 1 0.0598035 0.181404 0.749096
165 1 0.061454 0.249896 0.687652
163 1 0.00145172 0.183441 0.689473
164 1 0.125718 0.188787 0.689181
167 1 0.189954 0.249944 0.686218
166 1 0.00069917 0.307674 0.691183
168 1 0.125536 0.315085 0.68845
170 1 0.000631662 0.184327 0.812225
175 1 0.0636649 0.247266 0.814598
172 1 0.122892 0.185357 0.813024
171 1 0.190633 0.185264 0.750005
179 1 0.188154 0.247741 0.80968
176 1 0.00217417 0.307975 0.814839
180 1 0.122575 0.308392 0.8145
174 1 0.0644058 0.309481 0.750051
177 1 0.125807 0.250167 0.75366
178 1 0.189724 0.313715 0.750509
688 1 0.249821 0.311528 0.811379
181 1 0.0626432 0.187776 0.87529
189 1 0.125097 0.243791 0.876535
183 1 0.193685 0.185937 0.873648
186 1 0.0604417 0.312304 0.876001
190 1 0.187712 0.311041 0.874035
697 1 0.249529 0.251541 0.87392
182 1 0.00111592 0.188396 0.94214
187 1 0.0633577 0.246264 0.937216
184 1 0.129055 0.185605 0.938881
99 1 0.190851 0.189921 0.996954
192 1 0.124716 0.309393 0.93269
102 1 0.0646889 0.314893 0.995754
191 1 0.187309 0.252331 0.93704
105 1 0.126014 0.251192 0.997902
195 1 0.0631193 0.377427 0.0646649
197 1 0.125818 0.374563 0.000933405
199 1 0.189715 0.375864 0.063528
705 1 0.249548 0.373727 0.00214967
257 1 0.00160269 0.498911 5.91727e-05
200 1 0.125124 0.434945 0.0649223
769 1 0.249499 0.499016 0.00187511
708 1 0.246653 0.442619 0.0690261
201 1 0.00162954 0.373295 0.120792
203 1 0.124017 0.377152 0.129403
202 1 0.0616355 0.440411 0.127697
269 1 1.30217e-05 0.498665 0.123987
271 1 0.123466 0.496879 0.126822
204 1 0.188503 0.438567 0.130101
205 1 0.0609068 0.374738 0.186359
207 1 0.189716 0.376131 0.18769
206 1 0.000683907 0.433277 0.18708
275 1 0.0614776 0.499496 0.192557
208 1 0.1233 0.436451 0.191556
718 1 0.249395 0.438448 0.19248
211 1 0.0582973 0.371766 0.315269
213 1 0.126018 0.372148 0.25047
215 1 0.184482 0.379793 0.312846
210 1 0.0569627 0.433829 0.253404
216 1 0.121785 0.436919 0.311414
214 1 0.186641 0.439397 0.251154
217 1 0.00232605 0.372765 0.381028
221 1 0.120356 0.375187 0.377739
729 1 0.248691 0.378319 0.369473
218 1 0.0628984 0.436735 0.375393
222 1 0.187961 0.443155 0.376457
219 1 0.0651119 0.382866 0.444377
223 1 0.186894 0.374867 0.434546
737 1 0.247693 0.372129 0.499536
220 1 0.00208313 0.438925 0.441428
295 1 0.062832 0.496218 0.437411
309 1 0.122567 0.495945 0.499765
224 1 0.126809 0.437998 0.43765
225 1 0.003926 0.376526 0.501188
227 1 0.067668 0.376653 0.565971
229 1 0.126514 0.373587 0.501874
231 1 0.187742 0.374311 0.565938
307 1 0.0618811 0.496003 0.564451
226 1 0.061521 0.441492 0.50458
232 1 0.129191 0.437562 0.563424
230 1 0.188907 0.438704 0.501593
311 1 0.191802 0.496853 0.565251
233 1 0.000506419 0.37402 0.623928
235 1 0.126763 0.380028 0.633208
234 1 0.0616161 0.435475 0.628118
319 1 0.127188 0.497628 0.625087
236 1 0.194014 0.438029 0.627783
237 1 0.0605724 0.373045 0.690599
241 1 0.000697698 0.378 0.748959
245 1 0.127084 0.378595 0.749897
239 1 0.189899 0.377917 0.689713
238 1 0.00127096 0.437904 0.685629
242 1 0.0661038 0.437321 0.749344
240 1 0.125105 0.440685 0.689841
243 1 0.0627584 0.372856 0.810655
247 1 0.189027 0.37686 0.816272
331 1 0.0615112 0.496786 0.812718
246 1 0.186493 0.442396 0.752283
248 1 0.125186 0.437089 0.814448
756 1 0.245872 0.44211 0.812547
249 1 0.00240946 0.375729 0.877508
253 1 0.128376 0.375056 0.873839
761 1 0.249112 0.37535 0.873868
250 1 0.0629281 0.438661 0.87831
254 1 0.182594 0.441858 0.879299
251 1 0.0646553 0.377238 0.937051
255 1 0.188846 0.370768 0.935798
252 1 0.000408629 0.436424 0.93841
194 1 0.0633407 0.43989 0.998773
256 1 0.125239 0.438156 0.935841
198 1 0.189115 0.440204 0.995328
260 1 0.00369039 0.561765 0.0609474
264 1 0.12251 0.562606 0.0652944
258 1 0.0670765 0.567074 0.000133068
259 1 0.0634228 0.501101 0.0672118
263 1 0.184963 0.5013 0.0653182
261 1 0.126435 0.500289 0.00403742
772 1 0.24805 0.563637 0.0637097
266 1 0.0605336 0.627278 0.0650812
265 1 0.000981571 0.623816 0.000540102
267 1 0.130752 0.626583 0.0047914
268 1 0.187972 0.625143 0.0665185
270 1 0.0611081 0.5613 0.128184
272 1 0.182745 0.56112 0.128067
781 1 0.248714 0.505863 0.12552
274 1 0.12409 0.626965 0.125405
278 1 0.121862 0.563808 0.186635
285 1 0.122006 0.501565 0.249768
286 1 0.183583 0.566374 0.248956
277 1 0.186252 0.5014 0.192818
788 1 0.248419 0.560353 0.189778
279 1 0.0589577 0.625428 0.189193
291 1 0.119812 0.62729 0.249252
280 1 0.185589 0.627556 0.187804
282 1 0.0572615 0.565362 0.250267
288 1 0.12373 0.562216 0.314313
283 1 0.0635997 0.502753 0.314269
287 1 0.186966 0.503563 0.310353
796 1 0.249241 0.566352 0.309789
290 1 0.0575518 0.623516 0.314575
292 1 0.183042 0.624784 0.313099
293 1 0.000494124 0.501506 0.374918
294 1 0.063658 0.563882 0.37709
297 1 0.122547 0.500202 0.374144
298 1 0.186696 0.561966 0.374981
805 1 0.249571 0.50397 0.372309
303 1 0.122304 0.625624 0.369296
296 1 0.00188066 0.562567 0.440407
306 1 0.0608523 0.558712 0.499457
300 1 0.127454 0.559997 0.440426
299 1 0.188894 0.500554 0.439483
302 1 0.0661152 0.624115 0.439647
304 1 0.186273 0.625639 0.435612
825 1 0.248044 0.627078 0.49948
308 1 0.00268553 0.5591 0.564183
312 1 0.125353 0.559771 0.563018
310 1 0.190454 0.561463 0.501429
313 1 0.00352348 0.624823 0.5005
315 1 0.124285 0.618423 0.500268
314 1 0.0633341 0.620734 0.564624
316 1 0.188194 0.623739 0.562265
318 1 0.0613193 0.557342 0.626372
320 1 0.189823 0.564117 0.625447
321 1 0.00106914 0.623875 0.628313
322 1 0.123114 0.621372 0.629742
833 1 0.249208 0.625955 0.622901
323 1 0.057421 0.500483 0.690055
330 1 0.0626352 0.563619 0.747667
326 1 0.12817 0.563992 0.689848
325 1 0.186181 0.504886 0.689018
333 1 0.125101 0.502846 0.749367
334 1 0.190507 0.5634 0.749957
327 1 0.0621909 0.623352 0.688009
328 1 0.189247 0.628284 0.692676
329 1 0.000472827 0.501552 0.75435
336 1 0.122538 0.562298 0.811337
335 1 0.185076 0.502707 0.810488
844 1 0.249046 0.559169 0.813008
337 1 0.00242978 0.625866 0.751514
338 1 0.0641251 0.627329 0.81206
339 1 0.126052 0.6231 0.751506
340 1 0.188515 0.624734 0.811292
342 1 0.058405 0.564377 0.872052
345 1 0.117799 0.505045 0.875988
346 1 0.184667 0.56147 0.874332
853 1 0.249606 0.502965 0.876541
351 1 0.124166 0.625269 0.8734
861 1 0.247835 0.624572 0.874386
344 1 0.000813116 0.563507 0.935315
348 1 0.124006 0.566591 0.936415
343 1 0.0625981 0.502672 0.937208
347 1 0.186773 0.502684 0.942965
262 1 0.192188 0.562559 0.999957
350 1 0.0623902 0.626042 0.939074
352 1 0.185875 0.627686 0.939149
359 1 0.0622244 0.74746 0.0600924
353 1 0.0613007 0.68578 0.00235801
356 1 0.124955 0.689364 0.0573425
363 1 0.188989 0.746995 0.0616318
355 1 0.189729 0.68891 0.000122317
360 1 0.000487882 0.814865 0.0577024
364 1 0.125526 0.813252 0.0629062
362 1 0.187083 0.812636 0.00217352
365 1 0.0643602 0.691161 0.125646
366 1 0.191761 0.684378 0.127573
367 1 0.000930054 0.750493 0.124239
368 1 0.0648371 0.809819 0.118528
370 1 0.187488 0.812721 0.124394
369 1 0.12666 0.750265 0.120119
377 1 0.0582071 0.68935 0.248995
371 1 0.000901637 0.686961 0.185917
373 1 0.0648525 0.749467 0.185425
372 1 0.128052 0.690169 0.183522
375 1 0.191537 0.749045 0.18288
376 1 0.127286 0.811606 0.189027
385 1 0.12976 0.750604 0.249016
386 1 0.188025 0.815645 0.249396
893 1 0.249602 0.754374 0.247507
886 1 0.247925 0.81457 0.186727
378 1 0.000776775 0.688081 0.319237
380 1 0.125983 0.690535 0.309411
379 1 0.189297 0.686987 0.250178
382 1 0.0614585 0.807679 0.253867
383 1 0.0607977 0.750825 0.31843
384 1 0.00235096 0.813683 0.316533
388 1 0.126649 0.811932 0.309816
387 1 0.189684 0.751217 0.311134
896 1 0.248498 0.817054 0.311203
389 1 0.0627714 0.684759 0.373847
391 1 0.186845 0.686623 0.370833
393 1 0.00411882 0.75092 0.381976
394 1 0.0667902 0.814114 0.377995
397 1 0.127265 0.750231 0.37406
398 1 0.189053 0.814944 0.372767
905 1 0.248129 0.752292 0.376698
390 1 0.00367781 0.688436 0.440186
405 1 0.00773576 0.749592 0.498172
395 1 0.0645363 0.749235 0.440166
409 1 0.122888 0.749511 0.498149
392 1 0.125967 0.68778 0.436336
403 1 0.179528 0.685454 0.498779
399 1 0.188372 0.746892 0.436474
902 1 0.249367 0.687537 0.443254
396 1 0.00506336 0.811328 0.436333
400 1 0.124451 0.813172 0.439202
410 1 0.185105 0.810527 0.499353
908 1 0.24568 0.810928 0.438073
402 1 0.00268067 0.681501 0.564954
404 1 0.123281 0.683432 0.566679
407 1 0.0692045 0.7469 0.567618
401 1 0.0650079 0.68494 0.503854
411 1 0.185816 0.745273 0.559837
406 1 0.0616726 0.814572 0.500396
412 1 0.122589 0.813243 0.560377
413 1 0.0626194 0.684298 0.625794
417 1 0.127883 0.745517 0.626614
414 1 0.188489 0.682768 0.631418
927 1 0.244206 0.747513 0.625811
415 1 0.00134294 0.753304 0.623978
416 1 0.0651375 0.813391 0.62684
418 1 0.185245 0.810402 0.623374
420 1 0.123835 0.685302 0.694362
421 1 0.0641343 0.749631 0.686535
423 1 0.187138 0.749638 0.690181
422 1 0.000172835 0.809216 0.686332
433 1 0.121777 0.752338 0.749873
424 1 0.125911 0.814585 0.687788
934 1 0.246172 0.813743 0.688466
425 1 0.0595458 0.690911 0.751046
431 1 0.0620958 0.749283 0.813176
428 1 0.124172 0.688619 0.80971
427 1 0.191071 0.687909 0.752701
938 1 0.247513 0.68776 0.814286
430 1 0.06037 0.813887 0.753701
435 1 0.185693 0.750241 0.809807
436 1 0.126106 0.813193 0.810705
434 1 0.187786 0.813803 0.751969
944 1 0.247449 0.81367 0.814962
941 1 0.249073 0.750249 0.752278
437 1 0.062809 0.685806 0.874754
439 1 0.180595 0.689545 0.873519
953 1 0.247763 0.749427 0.875223
441 1 0.00240156 0.750141 0.873546
445 1 0.124743 0.750954 0.873463
442 1 0.0667247 0.812368 0.874497
446 1 0.19051 0.811285 0.880385
438 1 0.00236521 0.688941 0.937991
443 1 0.0632041 0.749464 0.934145
440 1 0.125404 0.686337 0.93856
444 1 0.005459 0.812393 0.936382
357 1 0.00417646 0.751654 0.995875
358 1 0.0634371 0.818305 0.998777
361 1 0.122591 0.750632 0.997102
448 1 0.128856 0.810504 0.938386
447 1 0.192574 0.752922 0.936623
451 1 0.0586916 0.877684 0.057091
455 1 0.19024 0.876085 0.0598116
452 1 2.5044e-05 0.936816 0.0588895
3 1 0.0662955 0.99987 0.0606439
456 1 0.12722 0.937864 0.0644719
964 1 0.249362 0.939244 0.0578062
457 1 0.00194032 0.872443 0.125999
459 1 0.121325 0.873964 0.122625
458 1 0.0601609 0.934556 0.124261
460 1 0.187897 0.937782 0.122361
461 1 0.0600529 0.868928 0.189141
465 1 0.000543374 0.872377 0.245694
469 1 0.125849 0.873971 0.247874
463 1 0.189326 0.877719 0.182907
466 1 0.0618258 0.938766 0.247906
464 1 0.124549 0.935368 0.188049
974 1 0.247186 0.938028 0.186343
467 1 0.0634573 0.879117 0.31397
471 1 0.188448 0.877083 0.314185
977 1 0.248314 0.879365 0.250326
468 1 0.000104438 0.940125 0.31149
472 1 0.122182 0.934804 0.311845
27 1 0.0638335 0.999028 0.310519
470 1 0.187042 0.940938 0.250093
980 1 0.249015 0.941043 0.309965
473 1 0.00173611 0.873328 0.374074
477 1 0.12717 0.877111 0.372291
985 1 0.248935 0.873711 0.375901
474 1 0.061781 0.939257 0.374802
37 1 0.00146736 0.999187 0.378163
478 1 0.185739 0.939912 0.37322
475 1 0.0591639 0.876243 0.438684
485 1 0.123532 0.875937 0.497003
479 1 0.183117 0.87492 0.437307
993 1 0.246414 0.875099 0.494218
482 1 0.0617003 0.938188 0.499462
480 1 0.125249 0.938556 0.43911
988 1 0.243585 0.94017 0.436978
483 1 0.0607637 0.873652 0.561159
487 1 0.186814 0.871953 0.559356
484 1 0.00343623 0.936966 0.561979
488 1 0.121969 0.931614 0.563279
55 1 0.179408 0.994174 0.563923
996 1 0.247235 0.93566 0.563988
486 1 0.187709 0.937894 0.506701
491 1 0.130512 0.874305 0.623661
1001 1 0.247203 0.873135 0.624663
490 1 0.0613303 0.935433 0.626091
492 1 0.18779 0.936858 0.624769
493 1 0.0624529 0.874198 0.686323
501 1 0.125189 0.872614 0.749611
495 1 0.187969 0.872484 0.689195
498 1 0.0618222 0.935676 0.747977
67 1 0.0616598 0.993391 0.688441
496 1 0.12718 0.934182 0.687369
77 1 0.131168 0.999543 0.749505
502 1 0.188588 0.93848 0.748167
1006 1 0.249021 0.938032 0.686065
69 1 0.189742 0.999657 0.68557
499 1 0.0618753 0.872688 0.809287
503 1 0.188647 0.873259 0.815119
75 1 0.0620898 0.999509 0.80927
504 1 0.124723 0.939203 0.810737
1012 1 0.249195 0.93536 0.811873
79 1 0.1893 0.999651 0.809564
505 1 0.00228831 0.874885 0.872858
509 1 0.126307 0.87621 0.876346
1017 1 0.248834 0.874643 0.877378
506 1 0.060744 0.938094 0.868184
89 1 0.126651 0.998134 0.871674
510 1 0.187941 0.939321 0.87404
507 1 0.0611086 0.875599 0.933241
453 1 0.126368 0.877575 0.998865
511 1 0.188929 0.875296 0.943002
450 1 0.0615711 0.938294 0.996905
508 1 0.00200131 0.935898 0.933523
1 1 0.00276209 0.999898 0.999659
87 1 0.061811 0.999811 0.935735
512 1 0.124448 0.943004 0.934523
5 1 0.119847 0.999313 0.995932
454 1 0.186091 0.938086 0.995053
516 1 0.253469 0.0651034 0.0603897
520 1 0.374828 0.0642345 0.0609393
515 1 0.313261 0.00130013 0.060387
519 1 0.437894 0.00537635 0.0604255
521 1 0.25249 0.12733 0.00212689
522 1 0.314907 0.126128 0.062368
524 1 0.439964 0.123679 0.0597788
1033 1 0.496857 0.122831 0.000507723
526 1 0.310687 0.0620886 0.123171
527 1 0.374753 0.00497074 0.123949
528 1 0.440746 0.0638632 0.128367
529 1 0.250179 0.121875 0.11906
530 1 0.376947 0.123233 0.122013
1041 1 0.49699 0.128344 0.125352
538 1 0.309717 0.0627471 0.248731
532 1 0.251218 0.0642629 0.184356
531 1 0.308888 0.00250247 0.188876
534 1 0.37411 0.0659461 0.188978
533 1 0.434084 0.00165678 0.186914
541 1 0.375138 0.00147101 0.24873
542 1 0.440837 0.0596392 0.248949
535 1 0.311337 0.124665 0.188792
547 1 0.375828 0.126066 0.249504
536 1 0.434919 0.128675 0.189566
540 1 0.250759 0.0670953 0.313967
544 1 0.373866 0.0637384 0.314376
539 1 0.312946 0.000963214 0.310606
543 1 0.437057 0.000893959 0.314233
1052 1 0.498859 0.0662239 0.307677
546 1 0.311728 0.126026 0.307457
548 1 0.436339 0.126961 0.314267
1057 1 0.496275 0.129006 0.250324
550 1 0.312306 0.0628374 0.375324
553 1 0.374779 0.00212347 0.374764
554 1 0.439719 0.0651194 0.374351
1061 1 0.49819 0.00264308 0.375072
559 1 0.374582 0.125755 0.372511
552 1 0.251563 0.0610125 0.434026
562 1 0.310951 0.0632729 0.49828
551 1 0.310356 0.00137692 0.438702
556 1 0.373832 0.0639339 0.438459
565 1 0.378064 0.0024218 0.498119
566 1 0.440975 0.0624541 0.49993
558 1 0.311722 0.123502 0.438001
571 1 0.372206 0.128777 0.499256
560 1 0.438918 0.125002 0.437986
564 1 0.250736 0.0625552 0.56418
568 1 0.374778 0.0624648 0.558115
567 1 0.439925 0.00391094 0.561283
570 1 0.310657 0.122759 0.560683
572 1 0.439921 0.124484 0.56183
574 1 0.314218 0.0606374 0.619929
576 1 0.43552 0.0596773 0.623793
578 1 0.37735 0.124695 0.623755
1089 1 0.498752 0.124388 0.625349
586 1 0.310064 0.0597168 0.748815
582 1 0.377636 0.0604164 0.689635
1092 1 0.499517 0.0615024 0.687016
581 1 0.439441 0.00148631 0.68657
583 1 0.31468 0.123568 0.69026
584 1 0.436766 0.127753 0.693203
592 1 0.372555 0.0596601 0.813114
590 1 0.43932 0.0586785 0.753301
1100 1 0.499163 0.0581046 0.812842
594 1 0.313971 0.122935 0.810722
595 1 0.375801 0.127256 0.755779
596 1 0.431085 0.124926 0.817795
1105 1 0.498522 0.124246 0.752213
598 1 0.308841 0.0656008 0.876195
597 1 0.251124 0.00169345 0.870656
602 1 0.431614 0.0583418 0.870559
607 1 0.3731 0.123737 0.879407
1117 1 0.496693 0.123674 0.874897
600 1 0.251143 0.0635049 0.937695
599 1 0.311142 0.00221822 0.935013
514 1 0.312375 0.0636082 0.997196
517 1 0.37381 0.00640635 0.99832
604 1 0.377433 0.062061 0.934611
518 1 0.43581 0.0606795 0.998226
1112 1 0.495968 0.0605382 0.933746
1025 1 0.499538 0.00624057 0.99948
606 1 0.314537 0.122622 0.940691
523 1 0.376293 0.123982 0.99983
608 1 0.43809 0.122668 0.937434
609 1 0.310781 0.186718 0.00251174
612 1 0.373837 0.18723 0.0639503
619 1 0.437334 0.248086 0.0664232
615 1 0.310066 0.250386 0.0604385
614 1 0.311969 0.316875 0.00338879
620 1 0.372308 0.310134 0.0661553
617 1 0.373999 0.251149 0.00112942
618 1 0.440452 0.314335 0.00100484
621 1 0.314517 0.186972 0.12444
622 1 0.438007 0.187874 0.12561
1135 1 0.499966 0.247503 0.125984
624 1 0.310154 0.313423 0.128579
625 1 0.37294 0.253047 0.128543
626 1 0.438376 0.315038 0.123907
629 1 0.31228 0.24977 0.190497
633 1 0.312073 0.188364 0.249183
628 1 0.371061 0.188365 0.19195
635 1 0.438945 0.190804 0.24952
637 1 0.250037 0.251154 0.247812
630 1 0.251265 0.315081 0.18794
638 1 0.316455 0.308568 0.249794
632 1 0.378139 0.314839 0.186538
631 1 0.437879 0.253247 0.188906
639 1 0.310068 0.247421 0.313304
636 1 0.371557 0.185576 0.308951
641 1 0.378428 0.249583 0.252004
643 1 0.438218 0.247412 0.315172
640 1 0.252324 0.312076 0.310528
644 1 0.376608 0.315069 0.313508
642 1 0.43879 0.314268 0.251148
645 1 0.309207 0.186872 0.378288
653 1 0.374415 0.244413 0.371958
647 1 0.436344 0.185762 0.373543
650 1 0.310208 0.31494 0.375331
654 1 0.440803 0.310434 0.369913
651 1 0.311326 0.248876 0.436941
661 1 0.250805 0.248401 0.499818
657 1 0.31163 0.185412 0.497225
648 1 0.37449 0.18668 0.434575
665 1 0.373961 0.245202 0.494932
655 1 0.441731 0.245961 0.434036
659 1 0.440918 0.187229 0.498063
662 1 0.310471 0.310277 0.497639
656 1 0.373558 0.308493 0.433748
666 1 0.435311 0.308591 0.49589
660 1 0.374359 0.183251 0.564451
667 1 0.431966 0.249493 0.562097
1170 1 0.496211 0.192047 0.56308
663 1 0.313555 0.253328 0.560883
668 1 0.378024 0.315298 0.55785
1176 1 0.495048 0.309711 0.563114
669 1 0.314836 0.187744 0.626138
673 1 0.375992 0.249422 0.624327
670 1 0.436485 0.184727 0.623231
671 1 0.25014 0.251587 0.625377
672 1 0.314598 0.313377 0.626144
674 1 0.43851 0.315115 0.628873
681 1 0.312392 0.185388 0.748372
675 1 0.253656 0.186518 0.688059
676 1 0.373195 0.190904 0.686344
1197 1 0.498469 0.248599 0.747502
686 1 0.310522 0.312359 0.748925
678 1 0.252776 0.314099 0.689012
677 1 0.313303 0.251932 0.686464
680 1 0.375734 0.312424 0.689871
679 1 0.435633 0.250596 0.691232
1190 1 0.498781 0.313334 0.691236
682 1 0.250427 0.189558 0.816009
684 1 0.374329 0.187017 0.812776
687 1 0.314921 0.249244 0.817426
683 1 0.437109 0.189065 0.753437
691 1 0.435375 0.24783 0.810339
685 1 0.252377 0.250289 0.750527
692 1 0.373774 0.312287 0.812666
689 1 0.37242 0.251089 0.751187
690 1 0.436621 0.30733 0.753664
1200 1 0.497121 0.309104 0.813605
693 1 0.313787 0.183141 0.875606
695 1 0.433321 0.18417 0.879413
698 1 0.311747 0.310722 0.874192
701 1 0.37926 0.252542 0.877053
702 1 0.435337 0.313998 0.872606
1209 1 0.493896 0.253355 0.876328
694 1 0.252191 0.186912 0.937378
699 1 0.317337 0.246726 0.937362
696 1 0.376574 0.184197 0.939521
611 1 0.436564 0.188105 0.998925
1206 1 0.496756 0.182539 0.934562
700 1 0.251376 0.313966 0.934518
613 1 0.251671 0.252275 0.999932
703 1 0.434917 0.25333 0.941031
704 1 0.375786 0.314644 0.941794
1212 1 0.497815 0.313025 0.936817
707 1 0.309092 0.374924 0.0656015
711 1 0.435892 0.372978 0.063864
1217 1 0.499947 0.378003 0.00559875
706 1 0.311825 0.438982 0.00407339
712 1 0.373861 0.437761 0.0661405
710 1 0.439453 0.438484 0.00231064
775 1 0.437692 0.499807 0.0658021
713 1 0.250837 0.372568 0.12785
715 1 0.37463 0.375094 0.125198
714 1 0.307139 0.441142 0.128531
783 1 0.371754 0.49808 0.122898
716 1 0.445306 0.432406 0.124253
717 1 0.315477 0.377817 0.188824
725 1 0.373108 0.374404 0.249844
719 1 0.439938 0.377254 0.192092
720 1 0.378403 0.437709 0.185909
789 1 0.436221 0.49869 0.179944
721 1 0.252133 0.377869 0.253783
723 1 0.315214 0.377189 0.311347
727 1 0.438833 0.374442 0.314948
724 1 0.254668 0.444718 0.311634
722 1 0.316732 0.44259 0.25251
728 1 0.37589 0.43608 0.31195
726 1 0.43747 0.437986 0.252122
799 1 0.440277 0.499911 0.310986
733 1 0.37457 0.375611 0.373675
730 1 0.311873 0.43906 0.374311
809 1 0.373625 0.499253 0.377497
734 1 0.437752 0.438754 0.368856
731 1 0.312821 0.376954 0.436606
741 1 0.374934 0.375764 0.49991
735 1 0.435824 0.377781 0.431901
1249 1 0.494766 0.376147 0.499783
738 1 0.311457 0.441404 0.497839
732 1 0.252848 0.436912 0.436295
736 1 0.375083 0.43693 0.43743
742 1 0.436344 0.440883 0.497407
739 1 0.312327 0.371734 0.559436
743 1 0.440027 0.377723 0.55969
740 1 0.252491 0.432611 0.562542
819 1 0.312053 0.499781 0.562817
817 1 0.253094 0.499263 0.503426
744 1 0.371974 0.434151 0.5643
821 1 0.370976 0.498888 0.501225
823 1 0.434984 0.494897 0.56261
1252 1 0.498372 0.440665 0.561502
745 1 0.251697 0.373913 0.625287
747 1 0.377217 0.377871 0.625349
1257 1 0.493325 0.377762 0.625719
829 1 0.25405 0.498787 0.624766
746 1 0.312774 0.436388 0.627882
831 1 0.375544 0.499978 0.625364
748 1 0.437585 0.440156 0.628354
1341 1 0.495404 0.497794 0.621077
749 1 0.311459 0.378225 0.68783
751 1 0.43329 0.376305 0.691742
750 1 0.253364 0.440197 0.690811
752 1 0.371261 0.439782 0.689314
758 1 0.434861 0.438166 0.749193
837 1 0.434201 0.499758 0.686412
1262 1 0.496873 0.437044 0.692497
755 1 0.310768 0.372523 0.813997
753 1 0.250518 0.375012 0.752723
757 1 0.374222 0.374657 0.751292
759 1 0.434543 0.374744 0.810325
1265 1 0.497661 0.372187 0.751659
754 1 0.312083 0.435862 0.751913
843 1 0.312073 0.498536 0.812098
760 1 0.376822 0.437394 0.81576
1268 1 0.49595 0.437892 0.812835
847 1 0.437679 0.497414 0.811858
765 1 0.374532 0.375292 0.875878
1273 1 0.499035 0.373716 0.870116
762 1 0.312129 0.438096 0.870755
766 1 0.439692 0.435258 0.876553
763 1 0.31272 0.373639 0.933218
709 1 0.373325 0.378642 0.998366
767 1 0.437757 0.373139 0.938394
764 1 0.252771 0.433045 0.93667
768 1 0.374239 0.439752 0.935367
1276 1 0.499891 0.437979 0.940314
771 1 0.311679 0.501617 0.0634
770 1 0.312977 0.565824 0.00465907
776 1 0.376069 0.568276 0.0627947
773 1 0.378262 0.501017 0.00514872
774 1 0.438757 0.562226 0.00137924
777 1 0.256639 0.627899 0.00248969
778 1 0.31642 0.625205 0.064071
780 1 0.437699 0.628463 0.0639263
782 1 0.314294 0.56163 0.126376
784 1 0.438164 0.565623 0.124557
785 1 0.251672 0.620774 0.128464
786 1 0.377564 0.627607 0.127424
1297 1 0.499471 0.626772 0.128394
787 1 0.312119 0.502138 0.188069
790 1 0.375534 0.564842 0.18402
797 1 0.378115 0.502123 0.24924
1300 1 0.498348 0.563008 0.191601
801 1 0.251316 0.624865 0.246341
791 1 0.31409 0.623777 0.187897
792 1 0.437418 0.625847 0.190335
794 1 0.310906 0.565162 0.251471
793 1 0.250189 0.502533 0.250556
795 1 0.31531 0.505439 0.313759
800 1 0.377022 0.564348 0.315664
798 1 0.439856 0.567626 0.251531
803 1 0.374455 0.62648 0.251557
802 1 0.313076 0.627601 0.308714
804 1 0.437555 0.624392 0.314274
806 1 0.312499 0.567163 0.371403
810 1 0.437052 0.563125 0.374944
813 1 0.254537 0.630207 0.374094
815 1 0.367937 0.628696 0.376369
808 1 0.251588 0.559878 0.442678
807 1 0.308697 0.502624 0.435297
812 1 0.372021 0.562139 0.438402
822 1 0.435505 0.558996 0.497693
1320 1 0.499717 0.562511 0.434302
1329 1 0.49656 0.501709 0.499904
811 1 0.441675 0.503208 0.433655
814 1 0.310039 0.622982 0.437537
827 1 0.370317 0.623004 0.499504
816 1 0.433767 0.623889 0.437893
820 1 0.250635 0.56146 0.563239
824 1 0.374854 0.560955 0.563055
818 1 0.312772 0.56059 0.502173
1332 1 0.496867 0.561835 0.557346
826 1 0.311247 0.625843 0.560503
828 1 0.435453 0.620268 0.556291
830 1 0.311832 0.566339 0.621905
832 1 0.437839 0.559466 0.623689
834 1 0.377835 0.623831 0.622493
836 1 0.252767 0.564483 0.689818
841 1 0.251474 0.502838 0.746146
838 1 0.374749 0.56226 0.684955
842 1 0.313885 0.565209 0.747448
835 1 0.313007 0.503035 0.68552
845 1 0.375564 0.504116 0.749689
846 1 0.44042 0.565169 0.748875
1348 1 0.497128 0.563635 0.681931
1353 1 0.496811 0.503115 0.748069
839 1 0.312941 0.624803 0.684442
851 1 0.379501 0.629 0.748201
840 1 0.43777 0.624766 0.68657
848 1 0.377071 0.562752 0.80948
850 1 0.311974 0.630336 0.815122
849 1 0.252438 0.622602 0.752937
852 1 0.438699 0.624933 0.811108
854 1 0.312502 0.565151 0.871491
857 1 0.37728 0.502963 0.87501
858 1 0.43784 0.565156 0.873121
1365 1 0.499134 0.502527 0.872682
863 1 0.374898 0.623054 0.873213
856 1 0.254545 0.562336 0.938673
855 1 0.316163 0.501231 0.934772
860 1 0.377138 0.562197 0.940519
1368 1 0.49886 0.564679 0.934147
859 1 0.437549 0.500537 0.937709
862 1 0.312456 0.624177 0.935132
779 1 0.376902 0.625355 0.999538
864 1 0.437522 0.627929 0.941606
866 1 0.250102 0.686902 0.0638177
869 1 0.252024 0.749138 0.00317756
868 1 0.37821 0.688652 0.0614822
867 1 0.436091 0.688956 0.000399705
1378 1 0.498849 0.693311 0.0679527
872 1 0.251629 0.814337 0.0614304
871 1 0.316305 0.752591 0.0636921
870 1 0.313755 0.810766 0.00568984
876 1 0.377456 0.811946 0.0621938
873 1 0.376954 0.752284 0.00249952
875 1 0.443122 0.757598 0.0609177
877 1 0.315971 0.68702 0.120683
878 1 0.43446 0.690794 0.126112
880 1 0.306016 0.814324 0.124411
879 1 0.252757 0.753693 0.122601
881 1 0.376194 0.753413 0.126616
882 1 0.443514 0.815717 0.124863
883 1 0.255703 0.685566 0.190209
884 1 0.372841 0.689942 0.188404
891 1 0.433519 0.688013 0.246966
885 1 0.315645 0.754639 0.185407
888 1 0.379635 0.815627 0.189861
887 1 0.439586 0.753363 0.187271
898 1 0.437921 0.817255 0.249467
1398 1 0.499615 0.816346 0.188891
889 1 0.310358 0.689808 0.25128
890 1 0.252721 0.694428 0.311623
892 1 0.372995 0.692253 0.310454
1402 1 0.497147 0.690254 0.312131
894 1 0.312247 0.817772 0.250506