ITEM: TIMESTEP
100000
ITEM: NUMBER OF ATOMS
2048
ITEM: BOX BOUNDS pp pp pp
0.0000000000000000e+00 1.1950412657485773e+01
0.0000000000000000e+00 1.1950412657485773e+01
0.0000000000000000e+00 1.1950412657485773e+01
ITEM: ATOMS id type xs ys zs
8 1 0.127027 0.0510075 0.0548673
4 1 0.00837349 0.0661899 0.0528389
516 1 0.243947 0.059296 0.0574578
17 1 0.00150716 0.129257 0.10801
10 1 0.0629823 0.135407 0.0587779
12 1 0.179247 0.114586 0.0672497
16 1 0.178869 0.0443943 0.120323
14 1 0.0647201 0.0605838 0.122549
18 1 0.123607 0.130794 0.121005
20 1 0.00340521 0.0633168 0.17646
22 1 0.116976 0.0592326 0.185218
532 1 0.244189 0.0566068 0.189647
23 1 0.0657153 0.133888 0.184661
24 1 0.183974 0.115151 0.17446
26 1 0.0591809 0.0555661 0.238101
30 1 0.180403 0.0608835 0.241798
33 1 0.00154093 0.12392 0.234046
34 1 0.125412 0.119888 0.240471
545 1 0.248891 0.116237 0.246181
31 1 0.177727 0.00448687 0.304408
32 1 0.115273 0.0559989 0.309117
47 1 0.0593136 0.140977 0.316302
36 1 0.192676 0.124573 0.29993
37 1 0.0102724 0.0141274 0.371814
27 1 0.129677 0.000489116 0.376148
549 1 0.240258 0.00960723 0.373631
38 1 0.076369 0.0660563 0.377278
41 1 0.172228 0.0654903 0.373558
42 1 0.12135 0.135807 0.371234
557 1 0.244186 0.117871 0.378242
43 1 0.184864 0.00652697 0.437018
40 1 0.00586278 0.0666212 0.430015
44 1 0.129017 0.0719204 0.442233
552 1 0.242429 0.0656856 0.437213
136 1 0.0605752 0.134511 0.439317
48 1 0.189283 0.127519 0.442815
54 1 0.183268 0.0603005 0.49965
57 1 0.00105848 0.117677 0.493585
569 1 0.246968 0.119945 0.492935
50 1 0.0601933 0.0694756 0.514673
59 1 0.119099 0.122618 0.500786
60 1 0.181755 0.118171 0.553537
564 1 0.245968 0.0551261 0.567221
62 1 0.0575234 0.0687558 0.610064
56 1 0.124322 0.0575629 0.562272
58 1 0.0547495 0.139559 0.562286
64 1 0.18303 0.0649598 0.626568
65 1 0.00222285 0.123475 0.630356
66 1 0.130044 0.119632 0.628378
68 1 0.000242053 0.0553804 0.704638
69 1 0.194991 0.00699879 0.690476
70 1 0.134745 0.0781148 0.697693
71 1 0.0576204 0.115537 0.686085
72 1 0.203585 0.125604 0.677822
77 1 0.132662 0.011107 0.751529
74 1 0.0649203 0.0594243 0.754572
78 1 0.189914 0.0634869 0.757776
83 1 0.126294 0.131511 0.759193
76 1 0.000551958 0.0598003 0.826154
80 1 0.129097 0.0687806 0.814169
82 1 0.0623144 0.13544 0.810169
84 1 0.186944 0.125196 0.812817
89 1 0.129041 0.0120807 0.872652
86 1 0.0683114 0.0661316 0.876389
90 1 0.193961 0.0650701 0.871937
93 1 0.00545279 0.125622 0.875298
95 1 0.125472 0.129913 0.878462
87 1 0.0658131 0.00658118 0.932526
91 1 0.193382 0.00384309 0.931612
88 1 0.0038714 0.0716405 0.932638
92 1 0.131468 0.0637486 0.936347
94 1 0.0651643 0.132859 0.939412
96 1 0.186356 0.129314 0.934434
2 1 0.0685062 0.0593991 0.994279
6 1 0.196002 0.0592438 0.991647
9 1 0.0106332 0.128815 0.994245
11 1 0.122169 0.125618 0.996893
99 1 0.194245 0.173467 0.00606312
105 1 0.129918 0.244894 0.000149926
613 1 0.240862 0.241621 0.00294986
102 1 0.0642932 0.309555 0.000167362
616 1 0.245402 0.303757 0.0545259
98 1 0.00189374 0.191499 0.0557243
100 1 0.123254 0.193322 0.0636266
610 1 0.246178 0.183447 0.0692213
103 1 0.0610492 0.261314 0.0685876
107 1 0.188724 0.238646 0.0652685
108 1 0.12443 0.309847 0.0678806
116 1 0.0570553 0.185459 0.123664
110 1 0.186326 0.183616 0.128412
109 1 0.00120494 0.249278 0.126691
113 1 0.125908 0.254373 0.123357
623 1 0.246084 0.244842 0.12803
112 1 0.0541308 0.321743 0.126347
114 1 0.187844 0.306524 0.133349
35 1 0.121314 0.191913 0.185317
627 1 0.244131 0.181483 0.188131
117 1 0.0594519 0.237857 0.188001
119 1 0.179948 0.24385 0.18085
120 1 0.127715 0.307775 0.184312
121 1 0.0661636 0.185067 0.247075
123 1 0.180457 0.177364 0.23813
125 1 0.00285618 0.237326 0.250215
129 1 0.122053 0.245418 0.247904
637 1 0.245449 0.237515 0.259098
126 1 0.057616 0.304145 0.241195
130 1 0.190009 0.313635 0.247066
124 1 0.129369 0.179499 0.30597
634 1 0.249583 0.182469 0.317265
127 1 0.0551877 0.242362 0.314154
131 1 0.188942 0.236517 0.317799
128 1 0.00488106 0.303491 0.31269
132 1 0.129697 0.304746 0.304348
640 1 0.241262 0.302659 0.310338
46 1 0.0523983 0.192234 0.383308
135 1 0.18522 0.184664 0.382207
141 1 0.120689 0.241998 0.361937
138 1 0.0621065 0.319302 0.365592
142 1 0.193318 0.305218 0.372918
139 1 0.0728677 0.260569 0.434657
143 1 0.188295 0.248063 0.438966
140 1 0.00285752 0.318952 0.441021
144 1 0.137118 0.31066 0.428953
133 1 0.128602 0.185958 0.445434
652 1 0.249109 0.306886 0.445179
145 1 0.0581301 0.190656 0.500653
147 1 0.189173 0.185399 0.506608
153 1 0.134893 0.245754 0.504977
150 1 0.0628226 0.319054 0.505576
154 1 0.184978 0.307726 0.501296
148 1 0.119282 0.19001 0.562554
658 1 0.249743 0.188653 0.571562
151 1 0.0591775 0.247164 0.571006
155 1 0.194645 0.258724 0.562975
156 1 0.118447 0.304669 0.566663
157 1 0.0653153 0.180012 0.631378
158 1 0.18508 0.17919 0.618425
159 1 0.00284358 0.252935 0.640436
161 1 0.137365 0.254122 0.632648
160 1 0.060932 0.315466 0.630999
162 1 0.199088 0.317608 0.633203
163 1 0.00310167 0.1811 0.692775
164 1 0.135378 0.180989 0.691164
165 1 0.0744797 0.246635 0.685551
167 1 0.209157 0.244682 0.683381
166 1 0.0029609 0.319069 0.683078
168 1 0.128426 0.318507 0.693164
169 1 0.0657734 0.193449 0.749744
171 1 0.190813 0.183304 0.74804
177 1 0.136644 0.243749 0.745611
685 1 0.24918 0.242298 0.753374
174 1 0.0689961 0.31702 0.745646
178 1 0.19221 0.302671 0.742847
170 1 0.00935172 0.198357 0.808665
172 1 0.133356 0.189835 0.821017
682 1 0.247153 0.187874 0.807429
175 1 0.0751626 0.262168 0.816144
179 1 0.18836 0.250051 0.806472
176 1 0.00358119 0.316535 0.807742
180 1 0.139253 0.325571 0.801954
688 1 0.241153 0.316893 0.814524
181 1 0.0642571 0.19415 0.870007
183 1 0.201584 0.180655 0.872254
185 1 0.00794835 0.263975 0.868059
189 1 0.135463 0.25229 0.873333
697 1 0.245993 0.25901 0.874192
186 1 0.0731002 0.320959 0.868755
190 1 0.184133 0.315089 0.873512
184 1 0.131526 0.186882 0.939347
694 1 0.246364 0.191099 0.944376
187 1 0.0636807 0.252837 0.930607
191 1 0.187436 0.247926 0.937913
192 1 0.118534 0.323465 0.936638
700 1 0.248026 0.318804 0.935809
97 1 0.0697996 0.193245 0.997316
101 1 0.000828684 0.257964 0.998731
106 1 0.171129 0.309628 0.994598
193 1 4.61242e-05 0.377059 0.000816324
197 1 0.11697 0.369724 0.00759382
705 1 0.247698 0.376499 0.00210925
198 1 0.18437 0.434486 0.00254653
261 1 0.119429 0.482262 0.00252028
769 1 0.246093 0.497233 0.00486798
195 1 0.0546047 0.377661 0.0679793
199 1 0.184853 0.369179 0.060485
200 1 0.126596 0.441552 0.0683448
708 1 0.244834 0.434587 0.0603303
259 1 0.0661592 0.499396 0.0672838
263 1 0.18459 0.495699 0.0744898
203 1 0.122569 0.374 0.117558
202 1 0.0628918 0.428946 0.130692
204 1 0.191327 0.428152 0.121406
205 1 0.0606573 0.370991 0.189503
207 1 0.181964 0.371912 0.175891
208 1 0.123718 0.430923 0.188123
275 1 0.0665156 0.498314 0.181308
209 1 0.00958729 0.371182 0.253897
213 1 0.125178 0.370454 0.242181
210 1 0.068789 0.443539 0.245853
214 1 0.195156 0.439931 0.238001
281 1 0.0060773 0.497688 0.257764
285 1 0.13723 0.49292 0.242363
211 1 0.0755442 0.371877 0.302604
215 1 0.192401 0.373897 0.303841
212 1 0.00856847 0.428209 0.309949
216 1 0.136692 0.432302 0.302335
724 1 0.248493 0.431827 0.312057
221 1 0.130671 0.37433 0.372509
287 1 0.194447 0.428394 0.374468
218 1 0.0769828 0.444636 0.362768
219 1 0.0611718 0.379999 0.430576
223 1 0.193553 0.383374 0.436158
220 1 0.00923128 0.441249 0.422639
224 1 0.124099 0.440634 0.435797
222 1 0.19265 0.490019 0.430255
229 1 0.128659 0.381859 0.499088
737 1 0.239457 0.367988 0.498979
226 1 0.0673548 0.436127 0.490465
230 1 0.185249 0.443199 0.494862
740 1 0.247782 0.440047 0.552964
227 1 0.0701458 0.384684 0.557891
231 1 0.188839 0.365184 0.558418
228 1 0.00870058 0.440074 0.56003
232 1 0.133348 0.447068 0.559716
233 1 0.00584519 0.386302 0.626624
235 1 0.132955 0.360504 0.624061
745 1 0.248134 0.381552 0.611559
234 1 0.0718912 0.441443 0.615788
236 1 0.192059 0.450364 0.616366
237 1 0.0734932 0.380093 0.686043
239 1 0.197348 0.390202 0.690158
323 1 0.0609156 0.499968 0.683544
240 1 0.122643 0.446886 0.693099
325 1 0.188705 0.498244 0.685972
241 1 0.00953422 0.381598 0.736592
245 1 0.137526 0.381089 0.744496
246 1 0.194168 0.443386 0.746462
242 1 0.0602689 0.448458 0.744842
243 1 0.0650375 0.376736 0.802758
247 1 0.196923 0.38141 0.809229
248 1 0.11933 0.438415 0.797792
331 1 0.0567199 0.494692 0.812572
335 1 0.193323 0.495259 0.807442
249 1 0.000427682 0.369812 0.868686
253 1 0.135854 0.386039 0.866229
761 1 0.240921 0.37034 0.876058
250 1 0.0660384 0.429555 0.867035
254 1 0.191657 0.445444 0.874557
252 1 0.00385117 0.437999 0.927047
256 1 0.133885 0.43251 0.940608
343 1 0.0596553 0.499382 0.937399
347 1 0.186317 0.497393 0.940881
251 1 0.0545216 0.369937 0.945801
255 1 0.18641 0.370166 0.944704
194 1 0.0492075 0.444543 0.996802
262 1 0.187865 0.552906 0.00269469
1799 1 0.00128302 0.557633 0.0523269
258 1 0.0627662 0.558196 0.000247595
265 1 0.00090706 0.625025 0.00326046
267 1 0.124957 0.616057 0.00686494
264 1 0.122265 0.551844 0.0583326
772 1 0.245509 0.564706 0.0676516
260 1 0.0524179 0.625852 0.0661915
268 1 0.183068 0.626224 0.0697323
269 1 0.000653025 0.500157 0.119647
271 1 0.125274 0.50108 0.132574
270 1 0.0552708 0.557538 0.120074
272 1 0.17905 0.569212 0.126232
274 1 0.116713 0.615666 0.122598
785 1 0.243986 0.625768 0.125205
277 1 0.198758 0.502389 0.180948
278 1 0.13309 0.559496 0.194154
788 1 0.245785 0.564746 0.176713
279 1 0.0554874 0.621357 0.190166
280 1 0.183896 0.627327 0.18453
793 1 0.245867 0.500348 0.245721
282 1 0.0607386 0.558587 0.239103
286 1 0.203612 0.578018 0.24964
289 1 0.00922015 0.634308 0.254931
291 1 0.122246 0.622571 0.247018
283 1 0.0864071 0.509439 0.303743
796 1 0.198353 0.50774 0.307079
284 1 0.00875559 0.564565 0.308069
288 1 0.141059 0.563484 0.304059
290 1 0.0723872 0.628133 0.308917
292 1 0.193225 0.626959 0.312699
293 1 0.0207188 0.504537 0.360334
297 1 0.141836 0.504543 0.363524
294 1 0.0756202 0.565406 0.362591
298 1 0.195189 0.566911 0.368908
301 1 0.00176963 0.634635 0.366523
303 1 0.132073 0.626667 0.367251
295 1 0.071758 0.505474 0.426703
296 1 0.0161116 0.563342 0.435428
300 1 0.128335 0.561164 0.431949
299 1 0.246935 0.55691 0.433231
302 1 0.0663527 0.62542 0.421699
304 1 0.189536 0.614695 0.435634
305 1 0.00975002 0.502707 0.486021
309 1 0.140613 0.505749 0.495837
817 1 0.246352 0.502052 0.494636
306 1 0.0726751 0.562731 0.492482
308 1 0.00263278 0.622969 0.495978
315 1 0.133566 0.635211 0.49023
307 1 0.0690962 0.510234 0.551131
1940 1 0.00960896 0.561018 0.555312
310 1 0.194779 0.568132 0.503071
825 1 0.249189 0.626728 0.500619
311 1 0.191479 0.504466 0.556805
312 1 0.132661 0.567311 0.556662
314 1 0.0719046 0.618061 0.557787
316 1 0.187483 0.625637 0.568892
317 1 0.00322217 0.500508 0.615245
319 1 0.119788 0.505105 0.621992
320 1 0.190429 0.55015 0.626754
318 1 0.0569527 0.564755 0.624835
322 1 0.12858 0.611421 0.62671
833 1 0.245328 0.629122 0.631095
324 1 0.000524418 0.556116 0.68455
326 1 0.125757 0.557528 0.686293
327 1 0.0471647 0.623385 0.681065
328 1 0.183704 0.619407 0.687413
333 1 0.125143 0.508038 0.751249
330 1 0.0590063 0.556699 0.745915
339 1 0.125961 0.60835 0.753261
334 1 0.201001 0.557634 0.747176
425 1 0.0637574 0.661247 0.750428
849 1 0.248653 0.626077 0.74341
336 1 0.126921 0.552879 0.822688
332 1 0.000378806 0.562403 0.813405
338 1 0.0662778 0.611468 0.811574
340 1 0.185868 0.621851 0.827198
342 1 0.0609668 0.552307 0.870614
345 1 0.130773 0.502262 0.882639
346 1 0.199964 0.56142 0.874941
351 1 0.123396 0.616633 0.876829
348 1 0.12759 0.558717 0.941947
350 1 0.0587591 0.621202 0.932452
352 1 0.186129 0.622048 0.950788
363 1 0.190549 0.75268 0.0462304
358 1 0.0616114 0.807712 0.0143062
356 1 0.114181 0.672031 0.0617656
866 1 0.249741 0.692369 0.0631005
359 1 0.0626212 0.732539 0.0602294
364 1 0.129392 0.809229 0.0620255
266 1 0.0558872 0.678036 0.129983
366 1 0.193635 0.700581 0.120982
365 1 0.00187627 0.744792 0.119917
369 1 0.125489 0.743035 0.11571
368 1 0.0670566 0.80081 0.115872
370 1 0.195268 0.815927 0.124751
372 1 0.123407 0.68009 0.179877
373 1 0.0639029 0.741822 0.18097
375 1 0.198359 0.75829 0.188154
376 1 0.115075 0.803444 0.184892
377 1 0.0691367 0.688847 0.246661
379 1 0.183102 0.700906 0.247557
381 1 0.00216217 0.742177 0.250471
385 1 0.124608 0.754082 0.25538
383 1 0.0511993 0.807172 0.250638
386 1 0.187735 0.818057 0.245726
380 1 0.130507 0.686559 0.31302
890 1 0.237429 0.700306 0.312451
384 1 0.064606 0.740324 0.310477
387 1 0.189161 0.760984 0.306643
2007 1 0.000516487 0.80182 0.310631
388 1 0.125045 0.816741 0.314015
896 1 0.24762 0.817201 0.314105
389 1 0.0633639 0.687742 0.370726
391 1 0.182077 0.692688 0.383488
393 1 0.00132408 0.740287 0.368884
397 1 0.127092 0.755127 0.369964
905 1 0.249399 0.750335 0.371109
394 1 0.062129 0.811638 0.370167
398 1 0.194134 0.819758 0.384435
390 1 0.00465557 0.688844 0.435402
392 1 0.116403 0.69011 0.432599
395 1 0.0578538 0.751439 0.435153
399 1 0.181378 0.750287 0.431035
396 1 0.00138429 0.820663 0.425515
400 1 0.124888 0.821991 0.430071
401 1 0.0569766 0.698109 0.499296
403 1 0.192729 0.690679 0.497852
405 1 0.0021234 0.751832 0.495229
409 1 0.120848 0.742968 0.495592
406 1 0.0699961 0.808244 0.493535
908 1 0.244759 0.81446 0.444528
917 1 0.246871 0.748341 0.501038
408 1 0.006875 0.813339 0.551143
410 1 0.19349 0.811303 0.51102
313 1 0.0058881 0.698033 0.562139
404 1 0.127653 0.692625 0.560119
407 1 0.0744082 0.750107 0.571705
411 1 0.194721 0.746396 0.573304
412 1 0.12722 0.805433 0.559218
920 1 0.24931 0.804058 0.571123
413 1 0.0776935 0.682293 0.620403
414 1 0.175372 0.686229 0.633498
417 1 0.129002 0.746988 0.630591
416 1 0.0663898 0.815073 0.622727
418 1 0.195395 0.807505 0.627604
420 1 0.119871 0.669592 0.690087
931 1 0.245326 0.689743 0.684252
421 1 0.0571768 0.737236 0.674271
423 1 0.188612 0.750162 0.690696
422 1 0.00387784 0.799268 0.689188
424 1 0.131285 0.80891 0.68205
427 1 0.18297 0.684806 0.737668
429 1 0.00574362 0.734381 0.747069
433 1 0.120581 0.741829 0.748562
941 1 0.248166 0.746062 0.745288
430 1 0.0638018 0.795099 0.75511
434 1 0.183125 0.800855 0.749808
426 1 0.00534133 0.677887 0.804292
428 1 0.127728 0.685639 0.805299
938 1 0.24734 0.680993 0.806718
431 1 0.0620847 0.7378 0.812689
435 1 0.181556 0.74362 0.805113
436 1 0.121822 0.800706 0.810881
944 1 0.247628 0.817238 0.81102
437 1 0.0634462 0.679465 0.87116
439 1 0.200724 0.689027 0.873917
445 1 0.135939 0.739938 0.873148
442 1 0.0627443 0.791011 0.876415
446 1 0.187708 0.807351 0.885088
438 1 0.00266931 0.682422 0.935487
440 1 0.123226 0.681193 0.93912
443 1 0.0593245 0.7404 0.940227
447 1 0.1931 0.743135 0.940368
444 1 0.00747234 0.801183 0.938216
448 1 0.113953 0.81469 0.937514
956 1 0.246948 0.803724 0.939595
353 1 0.0661634 0.678006 0.994082
355 1 0.179261 0.686657 0.999104
361 1 0.125452 0.754864 0.995686
362 1 0.183033 0.814864 0.997526
3 1 0.0612803 0.99069 0.051675
451 1 0.0521569 0.868935 0.0639038
455 1 0.188856 0.876651 0.0669457
456 1 0.119593 0.929751 0.065862
7 1 0.190154 0.975567 0.0635291
459 1 0.127481 0.865497 0.127226
458 1 0.0582091 0.923659 0.119557
460 1 0.175676 0.933015 0.126515
13 1 0.0134728 0.998262 0.115464
15 1 0.109909 0.993084 0.122078
525 1 0.244244 0.993026 0.135596
461 1 0.0520694 0.869597 0.199167
463 1 0.190408 0.882457 0.185472
464 1 0.105956 0.934041 0.184842
19 1 0.0440937 0.996074 0.190088
21 1 0.178894 0.994611 0.187626
469 1 0.12016 0.877829 0.246845
977 1 0.243877 0.876457 0.253426
466 1 0.0484506 0.93595 0.243721
470 1 0.182376 0.929361 0.251048
29 1 0.113758 0.993322 0.235302
537 1 0.24062 0.996057 0.248867
382 1 0.0585155 0.861993 0.310191
471 1 0.184852 0.880031 0.318881
472 1 0.126215 0.937827 0.30264
980 1 0.241507 0.941937 0.314216
474 1 0.0620006 0.988958 0.310105
473 1 0.00171977 0.868704 0.361525
477 1 0.123869 0.880586 0.366589
985 1 0.245571 0.878684 0.36989
467 1 0.0569539 0.942205 0.377168
478 1 0.183852 0.939389 0.373806
475 1 0.0698178 0.878193 0.427716
479 1 0.191599 0.878348 0.439121
480 1 0.127848 0.93623 0.431994
476 1 0.00246948 0.951407 0.439547
39 1 0.0723755 0.995552 0.437913
988 1 0.24198 0.944991 0.436066
481 1 0.0104062 0.878247 0.48903
482 1 0.0682566 0.930242 0.492348
486 1 0.17871 0.930455 0.498044
53 1 0.126904 0.997957 0.496965
485 1 0.129837 0.87 0.503268
561 1 0.23739 0.99852 0.504407
483 1 0.0723277 0.865087 0.560548
487 1 0.180423 0.865671 0.572064
484 1 0.00483016 0.944314 0.564796
996 1 0.242351 0.93153 0.564903
51 1 0.0666388 0.997915 0.573676
488 1 0.11816 0.944764 0.561205
55 1 0.182234 0.99701 0.564481
491 1 0.124949 0.876689 0.631283
490 1 0.0622947 0.921891 0.617979
492 1 0.188028 0.930926 0.626449
61 1 0.00567781 0.995081 0.62991
63 1 0.129387 0.999575 0.622647
573 1 0.243134 0.997394 0.622874
493 1 0.0690742 0.858051 0.698266
495 1 0.188866 0.865614 0.691758
494 1 0.0151304 0.93098 0.688828
496 1 0.119522 0.930296 0.705552
1006 1 0.243353 0.929551 0.688446
67 1 0.0725662 0.996571 0.698903
497 1 0.00282274 0.868889 0.747874
501 1 0.125448 0.869125 0.759736
1009 1 0.248863 0.866158 0.747927
498 1 0.0619708 0.93203 0.751987
502 1 0.197655 0.953252 0.753285
499 1 0.0495223 0.854058 0.815315
503 1 0.185483 0.874107 0.815427
500 1 0.00156435 0.925831 0.831503
75 1 0.0611655 0.995651 0.829732
504 1 0.12243 0.946863 0.816348
79 1 0.193085 0.99581 0.825294
509 1 0.125337 0.861654 0.870887
1017 1 0.238672 0.867026 0.878293
506 1 0.0690025 0.934386 0.883162
510 1 0.191307 0.93424 0.886204
507 1 0.0535902 0.868273 0.94017
511 1 0.183533 0.870985 0.936819
1020 1 0.248582 0.922818 0.943983
453 1 0.118488 0.872489 0.998461
450 1 0.0571949 0.938426 0.987698
512 1 0.123414 0.929417 0.944658
454 1 0.182627 0.922711 0.996937
1 1 0.0025841 0.999721 0.998246
5 1 0.127758 0.997699 0.993583
1025 1 0.482981 0.00659573 0.000406533
523 1 0.374943 0.127369 0.00954462
519 1 0.4269 0.0022987 0.0676834
520 1 0.365139 0.0596616 0.0636606
1028 1 0.498685 0.0599508 0.0609667
522 1 0.312628 0.124168 0.063528
524 1 0.442135 0.124085 0.0725054
1037 1 0.495457 0.0185726 0.125812
526 1 0.317962 0.0557688 0.126588
528 1 0.423123 0.0661214 0.131634
529 1 0.253363 0.121564 0.122587
530 1 0.374728 0.129308 0.126655
531 1 0.311336 0.00239553 0.190168
534 1 0.366596 0.0617805 0.189698
535 1 0.309859 0.123607 0.180421
536 1 0.422861 0.124289 0.193106
538 1 0.3149 0.062669 0.25933
542 1 0.427839 0.0560278 0.248931
547 1 0.370757 0.125484 0.257184
539 1 0.312178 6.93093e-05 0.316029
543 1 0.435287 0.00232425 0.311718
540 1 0.251262 0.0616708 0.310127
544 1 0.382286 0.0651055 0.314787
1052 1 0.494203 0.0651134 0.300899
546 1 0.309624 0.120904 0.330214
548 1 0.431439 0.130439 0.317694
553 1 0.372596 0.00370193 0.378198
550 1 0.307893 0.0566428 0.379628
554 1 0.435157 0.0577216 0.379267
559 1 0.375264 0.118489 0.386221
1069 1 0.492933 0.119074 0.378598
558 1 0.308415 0.118559 0.433928
560 1 0.436843 0.113933 0.440527
555 1 0.43164 0.0140623 0.448905
562 1 0.304668 0.0588705 0.496084
556 1 0.368745 0.0612718 0.444882
565 1 0.363739 0.00147866 0.507699
566 1 0.43613 0.0578503 0.5162
571 1 0.365193 0.112662 0.522094
1081 1 0.497296 0.121069 0.500388
567 1 0.452491 0.00397196 0.572653
568 1 0.390399 0.0605899 0.583417
570 1 0.296337 0.112471 0.555694
572 1 0.444811 0.125918 0.564848
574 1 0.312658 0.0490386 0.613734
576 1 0.452827 0.0632863 0.634078
577 1 0.262962 0.126657 0.626315
578 1 0.384913 0.130766 0.618263
581 1 0.446254 0.00288796 0.70386
580 1 0.25704 0.0611544 0.690237
582 1 0.390756 0.0672426 0.687292
583 1 0.323839 0.111485 0.680343
584 1 0.447632 0.132201 0.68962
585 1 0.258633 0.0114068 0.758095
586 1 0.322996 0.0707482 0.751662
590 1 0.440528 0.0689225 0.755088
593 1 0.253822 0.129632 0.753269
595 1 0.376945 0.136579 0.748265
588 1 0.259442 0.0547998 0.823058
587 1 0.319672 0.000326679 0.806211
591 1 0.437097 0.0020211 0.804494
592 1 0.381669 0.0718491 0.809489
594 1 0.316816 0.120428 0.812826
596 1 0.441017 0.131331 0.812472
601 1 0.383732 0.00570475 0.867647
1109 1 0.496638 0.00228711 0.865079
598 1 0.322483 0.0699695 0.873906
602 1 0.44708 0.0696265 0.862879
605 1 0.255008 0.120866 0.879653
607 1 0.384937 0.118087 0.876931
600 1 0.254832 0.0545189 0.925273
599 1 0.313387 0.00154153 0.930269
603 1 0.42646 0.0114902 0.940271
606 1 0.313526 0.129431 0.942826
608 1 0.449522 0.121499 0.930796
514 1 0.301172 0.0539832 0.994072
604 1 0.363437 0.0652536 0.94656
518 1 0.439841 0.0739051 0.997921
521 1 0.250735 0.119654 0.994864
611 1 0.442377 0.180546 0.00344383
1125 1 0.498415 0.242398 0.00511049
618 1 0.430671 0.320667 0.00738965
612 1 0.379917 0.185019 0.0713767
615 1 0.314897 0.235723 0.0661919
619 1 0.433748 0.238442 0.0675093
620 1 0.368297 0.310207 0.0597171
1128 1 0.490655 0.310446 0.0670795
621 1 0.307007 0.183881 0.125589
622 1 0.432906 0.187737 0.144585
625 1 0.378271 0.250084 0.12519
1135 1 0.497716 0.253162 0.119962
624 1 0.324209 0.312437 0.141346
626 1 0.43676 0.305555 0.121339
628 1 0.370373 0.1867 0.193538
629 1 0.304792 0.24129 0.190494
631 1 0.441534 0.249927 0.192952
630 1 0.252709 0.301856 0.192807
632 1 0.389663 0.310605 0.189842
633 1 0.312807 0.184434 0.248008
635 1 0.431183 0.185679 0.251334
641 1 0.38131 0.24629 0.250544
638 1 0.323075 0.31563 0.238054
642 1 0.445613 0.313621 0.246945
636 1 0.370037 0.188322 0.309966
1146 1 0.490032 0.189246 0.319567
639 1 0.318651 0.254412 0.312805
643 1 0.436972 0.252745 0.317139
644 1 0.382941 0.314233 0.308335
1152 1 0.497925 0.30622 0.319253
647 1 0.431824 0.174258 0.383101
649 1 0.251874 0.252407 0.385851
653 1 0.379501 0.242456 0.369909
1161 1 0.491239 0.246788 0.382429
650 1 0.314339 0.303683 0.385684
654 1 0.435713 0.315081 0.380859
646 1 0.25311 0.18834 0.443617
645 1 0.318189 0.192491 0.389736
1158 1 0.493839 0.186519 0.440465
655 1 0.433827 0.248544 0.432705
656 1 0.374668 0.306117 0.44016
1164 1 0.496298 0.308451 0.438093
648 1 0.377092 0.181357 0.450414
651 1 0.31608 0.246803 0.45157
657 1 0.308566 0.173573 0.505329
659 1 0.441651 0.184749 0.50168
661 1 0.25159 0.246378 0.504206
663 1 0.325527 0.247297 0.552918
665 1 0.391576 0.249707 0.500646
662 1 0.31103 0.321814 0.50051
666 1 0.446024 0.312182 0.504229
660 1 0.38148 0.18924 0.55829
667 1 0.454089 0.248241 0.556623
664 1 0.253806 0.311619 0.56198
668 1 0.369372 0.31883 0.556703
669 1 0.324733 0.183325 0.617344
670 1 0.448068 0.187752 0.618337
671 1 0.279646 0.248833 0.624844
673 1 0.384411 0.249484 0.62172
672 1 0.312343 0.329472 0.618089
674 1 0.441493 0.311985 0.622713
675 1 0.270099 0.182435 0.687229
676 1 0.386251 0.185566 0.679985
677 1 0.327804 0.237761 0.685685
679 1 0.434682 0.251515 0.685676
678 1 0.263823 0.314152 0.68092
680 1 0.367981 0.304665 0.697891
1190 1 0.499662 0.31152 0.680536
681 1 0.313593 0.190103 0.757953
1105 1 0.437479 0.191917 0.755105
684 1 0.374292 0.244835 0.751775
686 1 0.308937 0.301041 0.753011
690 1 0.430834 0.313325 0.75277
701 1 0.381122 0.186402 0.818956
691 1 0.499012 0.186167 0.816187
687 1 0.302992 0.246951 0.814729
683 1 0.437794 0.257221 0.825004
692 1 0.377554 0.319218 0.817203
1200 1 0.494861 0.317414 0.803521
693 1 0.296901 0.185217 0.872381
695 1 0.442422 0.184695 0.876493
689 1 0.376376 0.253406 0.882617
1209 1 0.499911 0.242527 0.878386
698 1 0.321487 0.309375 0.873692
702 1 0.437615 0.316663 0.882529
696 1 0.367395 0.186161 0.925603
699 1 0.315424 0.249606 0.938927
703 1 0.43502 0.241587 0.941409
704 1 0.379523 0.307223 0.940877
609 1 0.311052 0.189737 0.996981
617 1 0.371184 0.250973 0.999813
614 1 0.304044 0.312293 0.999789
1212 1 0.489312 0.306759 0.954524
709 1 0.372444 0.379397 0.0117375
1281 1 0.487198 0.486309 0.00869167
707 1 0.309141 0.381864 0.0636333
711 1 0.438528 0.375555 0.0634635
771 1 0.309293 0.497717 0.055721
712 1 0.371922 0.444723 0.0623909
775 1 0.432665 0.498547 0.069896
713 1 0.260792 0.370116 0.127079
715 1 0.375146 0.374135 0.120071
1225 1 0.492942 0.375307 0.124303
716 1 0.438859 0.435328 0.121557
714 1 0.310827 0.450863 0.128097
1293 1 0.499724 0.49874 0.120199
717 1 0.32474 0.384189 0.185821
719 1 0.438892 0.374674 0.188088
718 1 0.250323 0.437462 0.179328
1230 1 0.493823 0.435975 0.19727
720 1 0.376461 0.449366 0.182273
789 1 0.439087 0.498904 0.186609
721 1 0.260643 0.37782 0.235997
725 1 0.383894 0.367117 0.2463
722 1 0.314219 0.443727 0.243826
726 1 0.43696 0.432365 0.256915
1305 1 0.491666 0.491387 0.259657
723 1 0.299567 0.362842 0.317074
727 1 0.439153 0.379531 0.313443
728 1 0.371311 0.43856 0.306602
795 1 0.304116 0.491415 0.305102
729 1 0.252013 0.359931 0.38204
733 1 0.373431 0.372981 0.365965
730 1 0.307904 0.436687 0.373298
734 1 0.438717 0.42975 0.378133
805 1 0.250927 0.494476 0.371914
1317 1 0.494067 0.496022 0.373714
731 1 0.32277 0.376033 0.434386
735 1 0.441779 0.373421 0.436375
732 1 0.25488 0.434854 0.436944
736 1 0.367409 0.44467 0.429717
811 1 0.452688 0.496318 0.443867
741 1 0.379337 0.37061 0.489867
738 1 0.31951 0.435167 0.491794
742 1 0.449501 0.431276 0.49807
821 1 0.378731 0.495825 0.496104
819 1 0.316227 0.492061 0.548728
739 1 0.317792 0.381883 0.557668
743 1 0.446418 0.379559 0.570042
744 1 0.374866 0.43944 0.558904
747 1 0.377673 0.368983 0.632791
746 1 0.32126 0.439844 0.617436
748 1 0.437771 0.432932 0.638116
831 1 0.382857 0.493213 0.614558
1341 1 0.487185 0.496485 0.629189
749 1 0.303678 0.383455 0.690851
751 1 0.438857 0.368532 0.696107
752 1 0.367762 0.433889 0.68442
750 1 0.254168 0.446767 0.676802
837 1 0.443406 0.499278 0.698723
753 1 0.256565 0.376494 0.75212
757 1 0.363097 0.368704 0.753434
754 1 0.310455 0.438588 0.748517
758 1 0.418391 0.432436 0.751212
755 1 0.305756 0.365147 0.815564
759 1 0.433287 0.383421 0.812808
756 1 0.255206 0.439665 0.81349
760 1 0.369656 0.440771 0.812039
1268 1 0.494817 0.439623 0.810761
847 1 0.434639 0.496042 0.803707
765 1 0.367056 0.374262 0.874225
1273 1 0.494811 0.382672 0.882282
762 1 0.313258 0.443121 0.867954
853 1 0.253595 0.497216 0.87148
766 1 0.431129 0.444799 0.864755
857 1 0.375708 0.495736 0.881827
763 1 0.313099 0.368649 0.942576
767 1 0.433511 0.380676 0.939713
764 1 0.256944 0.424525 0.932154
768 1 0.366554 0.434828 0.936411
1276 1 0.491761 0.444259 0.937083
706 1 0.308526 0.43695 0.998137
710 1 0.427717 0.431607 0.996006
859 1 0.434567 0.499215 0.946035
773 1 0.38284 0.502982 0.00481803
1284 1 0.493444 0.560507 0.051948
777 1 0.255681 0.624917 0.00272497
779 1 0.375406 0.630586 0.00673689
776 1 0.372286 0.571811 0.061554
778 1 0.31057 0.63288 0.0720119
780 1 0.439864 0.624181 0.0591103
781 1 0.251762 0.501458 0.117115
783 1 0.368341 0.505735 0.126859
782 1 0.306053 0.563415 0.120839
784 1 0.428421 0.568063 0.122045
786 1 0.369346 0.626773 0.123343
1297 1 0.498729 0.627517 0.116096
787 1 0.312559 0.506979 0.189483
790 1 0.377233 0.580473 0.188247
1300 1 0.496151 0.573198 0.175128
791 1 0.302185 0.62151 0.182199
792 1 0.432655 0.639826 0.182681
797 1 0.374289 0.507266 0.24411
794 1 0.309437 0.565156 0.253101
798 1 0.448731 0.562847 0.239635
801 1 0.265031 0.63277 0.262496
803 1 0.365059 0.631855 0.254711
1313 1 0.498982 0.623366 0.24589
800 1 0.360245 0.553492 0.314055
799 1 0.428006 0.502567 0.314323
813 1 0.254805 0.567621 0.311914
804 1 0.426889 0.598989 0.311494
1308 1 0.495441 0.563769 0.310379
802 1 0.320225 0.625568 0.322501
806 1 0.301351 0.55519 0.378391
809 1 0.369631 0.501564 0.374793
810 1 0.448523 0.562385 0.381898
808 1 0.250065 0.625442 0.377637
815 1 0.378757 0.62197 0.375417
1325 1 0.497208 0.63034 0.378925
807 1 0.309177 0.500632 0.439801
812 1 0.376366 0.560676 0.428168
814 1 0.310885 0.629629 0.441997
816 1 0.430334 0.623409 0.440423
818 1 0.317982 0.561009 0.493669
1337 1 0.499618 0.613257 0.491391
823 1 0.444771 0.500494 0.552525
822 1 0.429523 0.567466 0.504841
827 1 0.37834 0.630547 0.504495
820 1 0.252982 0.560678 0.561357
824 1 0.374734 0.56696 0.559292
826 1 0.317415 0.619774 0.570249
828 1 0.431997 0.644516 0.566693
829 1 0.263057 0.50453 0.616431
830 1 0.335741 0.558299 0.627162
832 1 0.435644 0.557818 0.61868
834 1 0.382207 0.624015 0.629576
1345 1 0.497911 0.625398 0.631582
835 1 0.309171 0.50164 0.681239
836 1 0.250728 0.564796 0.686598
838 1 0.381204 0.573019 0.694343
839 1 0.325668 0.631607 0.690148
840 1 0.437759 0.633905 0.702001
841 1 0.261409 0.501775 0.748761
845 1 0.37079 0.508228 0.744036
1353 1 0.498983 0.500459 0.757767
842 1 0.310695 0.56671 0.750858
846 1 0.431161 0.560382 0.757492
851 1 0.374803 0.626052 0.755661
843 1 0.317892 0.506518 0.807768
844 1 0.250043 0.557661 0.807837
848 1 0.376856 0.56369 0.816522
1356 1 0.491047 0.565509 0.810188
850 1 0.314606 0.620268 0.814927
852 1 0.44169 0.631689 0.811507
1365 1 0.48612 0.507667 0.872108
854 1 0.313305 0.555947 0.877732
858 1 0.431961 0.562801 0.874866
861 1 0.254989 0.618193 0.867649
863 1 0.371681 0.621449 0.879809
1373 1 0.491891 0.62026 0.872314
855 1 0.318481 0.504157 0.93617
856 1 0.255721 0.567383 0.937767
860 1 0.379745 0.559768 0.937193
1368 1 0.496962 0.563812 0.936099
862 1 0.313822 0.625621 0.944158
864 1 0.430434 0.624725 0.939985
770 1 0.320299 0.557381 0.998674
774 1 0.437871 0.565377 0.994079
865 1 0.313151 0.689958 0.00576368
873 1 0.375427 0.74659 0.00406918
870 1 0.318778 0.796121 0.00124757
868 1 0.379119 0.686948 0.0636527
871 1 0.318149 0.743717 0.0616515
875 1 0.439377 0.747598 0.0682602
872 1 0.259236 0.803151 0.0569749
876 1 0.380923 0.804295 0.0625589
1384 1 0.492823 0.815035 0.0675778
877 1 0.305031 0.687762 0.124943
878 1 0.442601 0.692378 0.124735
879 1 0.25879 0.757953 0.129741
881 1 0.376415 0.74825 0.121867
880 1 0.313881 0.816792 0.126924
882 1 0.437271 0.809326 0.127822
883 1 0.261638 0.691224 0.198348
884 1 0.356507 0.682638 0.18764
885 1 0.320576 0.75615 0.18097
887 1 0.436155 0.750281 0.195876
886 1 0.261748 0.818554 0.189642
888 1 0.379518 0.813726 0.185644
1398 1 0.494935 0.80817 0.192168
889 1 0.316907 0.70569 0.25705
891 1 0.432423 0.672716 0.25712
893 1 0.2582 0.758176 0.246868
897 1 0.372913 0.761863 0.255443
894 1 0.311745 0.825174 0.257327
898 1 0.436073 0.805034 0.25547
892 1 0.375829 0.687635 0.31991
895 1 0.319052 0.751207 0.32122
899 1 0.436789 0.75064 0.312792
900 1 0.372334 0.820532 0.311826
1408 1 0.493545 0.817092 0.309598
901 1 0.315459 0.687901 0.381225