ITEM: TIMESTEP
100000
ITEM: NUMBER OF ATOMS
2048
ITEM: BOX BOUNDS pp pp pp
0.0000000000000000e+00 1.2699208415745595e+01
0.0000000000000000e+00 1.2699208415745595e+01
0.0000000000000000e+00 1.2699208415745595e+01
ITEM: ATOMS id type xs ys zs
845 1 0.215014 0.0365477 0.0485537
653 1 0.16156 0.0773297 0.113199
252 1 0.221043 0.116035 0.0520226
995 1 0.0420695 0.141792 0.0876898
1784 1 0.120505 0.0447815 0.0473478
222 1 0.0438576 0.0576613 0.0731728
1433 1 0.108948 0.130612 0.1366
1399 1 0.13305 0.124153 0.056043
637 1 0.0645932 0.118441 0.0102474
366 1 0.176668 0.0825796 0.00102444
2040 1 0.232136 0.130655 0.128661
1858 1 0.23996 0.0545664 0.134774
492 1 0.0718778 0.0591127 0.163153
743 1 0.179276 0.00423231 0.110036
688 1 0.195194 0.0861785 0.183212
1306 1 0.0326512 0.0781194 0.314096
428 1 0.0569195 0.085741 0.244369
437 1 0.070537 0.0143767 0.307426
1058 1 0.103666 0.158264 0.247671
1651 1 0.143586 0.0440393 0.332978
1055 1 0.197541 0.135466 0.282621
1051 1 0.131205 0.0839059 0.229939
812 1 0.21872 0.0511013 0.276857
393 1 0.141739 0.0316361 0.166671
1658 1 0.111212 0.10815 0.301195
771 1 0.0139961 0.10726 0.186885
595 1 0.160018 0.154022 0.192492
611 1 0.232668 0.103544 0.349605
886 1 0.16053 0.141818 0.424559
1866 1 0.0637204 0.0405163 0.453338
1528 1 0.173222 0.160276 0.350714
387 1 0.103716 0.122725 0.471895
1024 1 0.0875151 0.0884771 0.387002
1012 1 0.144036 0.0632453 0.426576
567 1 0.0984055 0.159317 0.366316
515 1 0.236914 0.157125 0.432949
1666 1 0.219605 0.0758327 0.440068
565 1 0.0133888 0.13995 0.362189
235 1 0.0915083 0.00331169 0.379576
1093 1 0.0114992 0.00502873 0.353746
228 1 0.00523156 0.123108 0.436896
1474 1 0.0454596 0.162861 0.489669
458 1 0.197181 0.00518031 0.433367
205 1 0.221094 0.072498 0.547488
283 1 0.0718261 0.0296981 0.649378
876 1 0.0171043 0.0154809 0.57202
930 1 0.145468 0.136749 0.572956
1518 1 0.12652 0.0204295 0.585578
339 1 0.0495764 0.0815419 0.515157
210 1 0.190476 0.0486683 0.625462
719 1 0.0114314 0.0979192 0.632136
1119 1 0.0832842 0.0837277 0.59693
1057 1 0.137173 0.106724 0.642576
1385 1 0.209137 0.136354 0.624847
1614 1 0.0812366 0.00863235 0.527881
413 1 0.0179961 0.130494 0.558057
622 1 0.191899 0.00391019 0.53785
1526 1 0.140658 0.0607609 0.514723
1007 1 0.0637563 0.160516 0.613032
931 1 0.183574 0.128675 0.511214
1757 1 0.071887 0.0709044 0.801101
1725 1 0.0273617 0.1605 0.678259
1336 1 0.124178 0.130617 0.748515
1604 1 0.113924 0.0407884 0.729118
94 1 0.215974 0.00497327 0.707964
1860 1 0.194301 0.0823951 0.699731
1157 1 0.0763843 0.104238 0.692569
285 1 0.0269174 0.0233134 0.727033
301 1 0.193517 0.153578 0.778765
685 1 0.171994 0.0640746 0.770053
197 1 0.0409222 0.137375 0.751611
772 1 0.249275 0.0304431 0.796164
2034 1 0.153975 0.119488 0.83128
498 1 0.176083 0.162945 0.703721
1647 1 0.152252 0.0193273 0.967439
1152 1 0.0273182 0.0850246 0.86965
1000 1 0.111725 0.0851046 0.961321
1228 1 0.107785 0.0740496 0.867796
669 1 0.0664877 0.021713 0.997226
2009 1 0.221941 0.0566611 0.917154
72 1 0.175066 0.115566 0.925634
1179 1 0.249128 0.115626 0.973135
879 1 0.106767 0.150091 0.899493
1533 1 0.174301 0.0379153 0.844633
648 1 0.0361561 0.0947969 0.941839
488 1 0.0305275 0.164278 0.905017
1630 1 0.185671 0.160679 0.988546
362 1 0.0814241 0.0130663 0.922045
1896 1 0.0382987 0.00672175 0.860162
563 1 0.0637508 0.143381 0.837237
1060 1 0.172403 0.17071 0.104776
209 1 0.224141 0.280003 0.0897856
860 1 0.236205 0.235943 0.0271179
877 1 0.162619 0.231202 0.0572353
695 1 0.135542 0.317631 0.133186
67 1 0.0972002 0.194056 0.0671564
1923 1 0.112522 0.213722 0.14321
1517 1 0.0148093 0.22432 0.121821
68 1 0.174928 0.258749 0.15988
1491 1 0.00165385 0.254056 0.0329306
1237 1 0.0421478 0.290536 0.0878035
345 1 0.0960413 0.271679 0.00665666
1062 1 0.0643001 0.265473 0.172612
487 1 0.184347 0.246236 0.272737
478 1 0.0233144 0.277456 0.314796
621 1 0.0973097 0.271758 0.284171
1871 1 0.148976 0.298303 0.218866
1275 1 0.0215017 0.230035 0.225271
1752 1 0.114533 0.229328 0.221203
1587 1 0.12427 0.2033 0.308031
469 1 0.149186 0.329353 0.291676
1605 1 0.0387076 0.311031 0.234114
875 1 0.231648 0.21138 0.329756
1146 1 0.0569799 0.173842 0.1753
626 1 0.232524 0.185197 0.218421
918 1 0.00560428 0.189794 0.303823
1436 1 0.24881 0.273917 0.18762
1675 1 0.107118 0.313877 0.442054
1294 1 0.233845 0.291274 0.338566
1224 1 0.178152 0.275813 0.433389
217 1 0.0398659 0.190813 0.418291
561 1 0.159581 0.262182 0.349672
825 1 0.0774237 0.232497 0.36875
1933 1 0.233188 0.230974 0.40653
552 1 0.0474087 0.262883 0.441008
1610 1 0.176508 0.213549 0.475133
1373 1 0.117663 0.209044 0.428868
577 1 0.113518 0.322361 0.364531
1723 1 0.11953 0.26399 0.494557
1222 1 0.203208 0.29278 0.511434
964 1 0.0429657 0.312505 0.585859
1806 1 0.074976 0.242865 0.605301
602 1 0.234512 0.257677 0.594004
1992 1 0.193858 0.288401 0.652718
1144 1 0.123478 0.322269 0.556949
1303 1 0.101173 0.191024 0.534614
1553 1 0.140363 0.205157 0.618507
874 1 0.0437568 0.246222 0.517248
1698 1 0.152448 0.250564 0.561047
291 1 0.20413 0.184307 0.557563
1445 1 0.0531503 0.205421 0.786782
330 1 0.172924 0.284346 0.742946
1509 1 0.121187 0.267615 0.671394
1164 1 0.0271499 0.278675 0.786144
154 1 0.0975622 0.182802 0.682696
943 1 0.150698 0.212575 0.757228
1505 1 0.215274 0.258366 0.80812
1889 1 0.0281866 0.242013 0.67023
2033 1 0.231022 0.210859 0.74207
31 1 0.0926608 0.267955 0.751401
1741 1 0.235111 0.223894 0.671322
808 1 0.116323 0.194497 0.829982
749 1 0.0723465 0.270707 0.858083
1586 1 0.161777 0.221454 0.927226
243 1 0.0762505 0.306531 0.931197
1497 1 0.239361 0.245378 0.879625
1352 1 0.021072 0.218313 0.856982
1120 1 0.0315318 0.188865 0.987688
1691 1 0.245808 0.264094 0.956314
426 1 0.195372 0.172179 0.870117
1787 1 0.149771 0.269733 0.860073
887 1 0.0729547 0.225791 0.919202
422 1 0.172989 0.26789 0.989831
1891 1 0.241943 0.183336 0.936351
129 1 0.111808 0.195531 0.982335
1109 1 0.098808 0.357398 0.0700718
297 1 0.045881 0.453126 0.0463631
686 1 0.156492 0.38976 0.145836
394 1 0.178614 0.471332 0.145673
1346 1 0.223166 0.403205 0.102072
1493 1 0.117301 0.430713 0.0781148
519 1 0.039934 0.397268 0.108284
191 1 0.180496 0.409738 0.0300544
927 1 0.228602 0.335151 0.141896
396 1 0.0354516 0.359362 0.0262424
937 1 0.0958024 0.42817 0.154911
1715 1 0.130924 0.472591 0.0179222
1141 1 0.0438433 0.334242 0.152618
1907 1 0.201353 0.474949 0.0662358
1687 1 0.183675 0.33991 0.0695803
1056 1 0.231824 0.355427 0.0146667
234 1 0.0181319 0.387962 0.259696
476 1 0.0272716 0.465464 0.309794
736 1 0.221035 0.416623 0.193236
1289 1 0.0777275 0.447414 0.246593
1849 1 0.212535 0.462629 0.277323
66 1 0.0108061 0.4007 0.187839
1327 1 0.067132 0.345592 0.300316
1820 1 0.194212 0.354431 0.219823
1386 1 0.153441 0.417852 0.281168
128 1 0.227765 0.387157 0.277391
45 1 0.149194 0.424732 0.208655
1172 1 0.0859179 0.379332 0.213906
1934 1 0.031479 0.479878 0.168304
1138 1 0.134984 0.389331 0.417619
1583 1 0.175641 0.401983 0.346668
1160 1 0.0564159 0.403695 0.478759
1909 1 0.212644 0.354877 0.414936
1668 1 0.0697449 0.438533 0.412565
828 1 0.203113 0.433873 0.414353
1361 1 0.0171814 0.491865 0.469057
166 1 0.0425407 0.35912 0.397889
274 1 0.147978 0.448401 0.466344
1018 1 0.0773337 0.411098 0.334674
902 1 0.244249 0.434813 0.343101
495 1 0.147194 0.484901 0.398382
944 1 0.0954016 0.490894 0.346687
1403 1 0.247302 0.439652 0.489014
572 1 0.032399 0.471633 0.543894
1295 1 0.197794 0.471741 0.613162
1747 1 0.191429 0.336677 0.584698
1195 1 0.187703 0.46305 0.537236
1235 1 0.0942883 0.417903 0.655092
1970 1 0.0450097 0.396813 0.556252
1485 1 0.0231531 0.447338 0.61438
1705 1 0.107394 0.462645 0.564466
1927 1 0.158224 0.409192 0.589231
1886 1 0.128236 0.385787 0.509302
1205 1 0.204693 0.387121 0.52518
1967 1 0.104652 0.342897 0.629324
1020 1 0.135223 0.482637 0.654192
522 1 0.177086 0.381836 0.662314
1577 1 0.0379139 0.335449 0.502804
1216 1 0.102176 0.398905 0.745215
570 1 0.124891 0.468068 0.793809
1558 1 0.0691332 0.340024 0.803085
1804 1 0.219341 0.343684 0.722019
1201 1 0.129538 0.338877 0.701969
494 1 0.172329 0.489187 0.733965
849 1 0.0558261 0.483314 0.749166
1531 1 0.227341 0.355236 0.809502
2013 1 0.2404 0.496485 0.698248
793 1 0.031159 0.409626 0.786349
1310 1 0.187783 0.418926 0.774681
1490 1 0.19659 0.486169 0.812512
208 1 0.0501547 0.359145 0.682631
416 1 0.146996 0.33915 0.794669
1188 1 0.00457612 0.428723 0.709857
863 1 0.24598 0.412008 0.693742
1821 1 0.152368 0.350337 0.994205
1568 1 0.0976623 0.48371 0.918767
1613 1 0.0439205 0.376129 0.948517
183 1 0.0547092 0.496106 0.983933
255 1 0.151455 0.463367 0.869413
1090 1 0.0891817 0.41018 1.00071
323 1 0.212147 0.402094 0.943149
117 1 0.0653752 0.44646 0.855541
693 1 0.068431 0.371886 0.879338
1259 1 0.125234 0.406687 0.931327
1708 1 0.0202054 0.454529 0.920188
658 1 0.199629 0.398264 0.866888
664 1 0.143854 0.342144 0.894994
1043 1 0.125306 0.393374 0.839228
1042 1 0.22921 0.45999 0.98836
1809 1 0.224643 0.334384 0.906756
1612 1 0.116743 0.584802 0.101725
220 1 0.177666 0.548505 0.140902
1811 1 0.240793 0.622338 0.041931
281 1 0.195251 0.559978 0.0626175
1061 1 0.0984389 0.631829 0.0179842
511 1 0.0174645 0.535946 0.0388282
1029 1 0.0611687 0.626324 0.152219
1688 1 0.126187 0.551971 0.0262019
1623 1 0.183615 0.623818 0.130965
379 1 0.155207 0.643338 0.0660071
440 1 0.0267085 0.54079 0.117637
261 1 0.136422 0.507963 0.089054
725 1 0.123581 0.662582 0.158735
806 1 0.0669573 0.58109 0.312712
1248 1 0.0506802 0.527344 0.248952
1341 1 0.104234 0.537423 0.169717
1245 1 0.158889 0.583747 0.206092
462 1 0.143554 0.607051 0.29374
2043 1 0.0912858 0.617899 0.229626
1653 1 0.151344 0.519927 0.263723
1982 1 0.0564854 0.660601 0.305974
1284 1 0.208467 0.504884 0.207818
238 1 0.21949 0.558384 0.264154
496 1 0.018613 0.626049 0.210548
6 1 0.246673 0.652624 0.190887
1319 1 0.246898 0.564234 0.179981
965 1 0.156728 0.551008 0.342516
1340 1 0.188821 0.570413 0.412146
1777 1 0.217636 0.602476 0.335505
836 1 0.123237 0.615264 0.370742
1751 1 0.239014 0.667683 0.379592
1111 1 0.216566 0.502227 0.440641
1266 1 0.0910938 0.502437 0.493091
1265 1 0.0484333 0.568917 0.48654
1756 1 -0.00208293 0.567432 0.369509
189 1 0.1026 0.560467 0.416619
969 1 0.041486 0.511967 0.397856
475 1 0.165158 0.522287 0.482777
1320 1 0.223481 0.506718 0.354997
165 1 0.0604841 0.634947 0.431361
713 1 0.189435 0.637181 0.453075
1906 1 0.00249883 0.655785 0.371505
1729 1 0.138121 0.592889 0.496463
2038 1 0.108665 0.593507 0.65316
174 1 0.0458724 0.647238 0.510485
1452 1 0.245712 0.612349 0.660351
1381 1 0.192064 0.545233 0.635999
907 1 0.183566 0.6536 0.611708
578 1 0.0868787 0.542806 0.566058
526 1 0.154415 0.583038 0.568685
2020 1 0.210999 0.61909 0.526606
631 1 0.0918855 0.628436 0.574722
1637 1 0.245851 0.580203 0.576761
119 1 0.0304541 0.586197 0.646615
646 1 0.0625798 0.515648 0.63678
480 1 0.00554154 0.578599 0.557858
1480 1 0.233393 0.545926 0.76898
201 1 0.0658053 0.580038 0.773062
1856 1 0.183392 0.557735 0.711415
789 1 0.123863 0.618266 0.812252
1607 1 0.192644 0.614854 0.779996
1893 1 0.0656061 0.513078 0.815965
1105 1 0.0885393 0.535078 0.704308
466 1 0.13255 0.544573 0.780423
109 1 0.0537596 0.667226 0.803919
704 1 0.122705 0.602823 0.729768
64 1 0.180852 0.635888 0.69576
1700 1 0.00666593 0.581987 0.850248
139 1 0.166734 0.611023 0.997019
837 1 0.0714914 0.567738 0.971264
155 1 0.17022 0.620977 0.914
1045 1 0.107861 0.55969 0.874673
1892 1 0.0318831 0.636053 0.980354
1590 1 0.0706274 0.648366 0.883093
1471 1 0.212118 0.564211 0.905518
1635 1 0.145394 0.556355 0.946309
1689 1 0.241965 0.628503 0.851227
347 1 0.0402673 0.528427 0.897328
932 1 0.191458 0.525237 0.996039
1422 1 0.236947 0.583907 0.977984
1792 1 0.182065 0.560458 0.834027
275 1 0.000514173 0.582005 0.936492
2014 1 0.101394 0.82316 0.116263
91 1 0.222371 0.685279 0.0767044
1307 1 0.0338335 0.813366 0.0299167
935 1 0.17406 0.744602 0.101264
897 1 0.111488 0.774381 0.0578688
892 1 0.201835 0.70938 0.163748
336 1 0.120078 0.738538 0.166099
1766 1 0.206704 0.757589 0.0365643
163 1 0.0730717 0.717342 0.0170712
1301 1 0.166996 0.687634 -0.00160145
107 1 0.0422269 0.754439 0.0941411
1489 1 0.102828 0.703796 0.0920089
1409 1 0.223484 0.831495 0.0191307
1743 1 0.0347014 0.669153 0.0663908
1588 1 0.0414824 0.733305 0.168469
820 1 0.129718 0.78637 0.243689
574 1 0.160302 0.688182 0.227226
635 1 0.236527 0.727976 0.228251
1429 1 0.0780776 0.702003 0.235265
1852 1 0.177629 0.802161 0.301739
1344 1 0.248758 0.800206 0.2559
2003 1 0.0967417 0.821527 0.307313
755 1 0.00747729 0.783316 0.314906
1350 1 0.207386 0.687555 0.289622
716 1 0.0685996 0.738249 0.303992
108 1 0.122897 0.683851 0.294462
316 1 0.0559084 0.787167 0.24995
909 1 0.17441 0.789544 0.176739
989 1 0.243597 0.746613 0.314995
1488 1 0.132999 0.754383 0.34352
839 1 0.219426 0.740553 0.40446
1512 1 0.145374 0.747601 0.418537
32 1 0.166523 0.681659 0.357455
1722 1 0.0250624 0.796954 0.491325
84 1 0.088603 0.806507 0.383676
848 1 0.18639 0.797222 0.458705
1946 1 0.0256264 0.726802 0.370099
1573 1 0.0913604 0.691737 0.370707
869 1 0.0993607 0.825315 0.456794
1282 1 0.187458 0.713972 0.471035
1439 1 0.0683382 0.744123 0.447847
834 1 0.117573 0.669604 0.492446
1008 1 0.0435306 0.71679 0.535433
600 1 0.100463 0.769722 0.5236
438 1 0.081872 0.786159 0.602354
1137 1 0.140966 0.741089 0.640656
2028 1 0.208869 0.723998 0.604134
1618 1 0.201137 0.798349 0.649213
1223 1 0.170693 0.680344 0.544217
1532 1 0.158079 0.806894 0.590244
2016 1 0.246402 0.696666 0.544727
1601 1 0.0765718 0.671716 0.636268
1748 1 0.110353 0.716052 0.574757
1227 1 0.00843756 0.782464 0.565905
618 1 0.204096 0.759004 0.53629
992 1 0.130065 0.816389 0.767796
564 1 0.0122667 0.708143 0.753095
1174 1 0.0406845 0.72756 0.681889
1931 1 0.154712 0.755906 0.810561
1680 1 0.234763 0.722347 0.822392
1253 1 0.138215 0.743477 0.720837
218 1 0.0977945 0.681094 0.713132
792 1 0.123267 0.690894 0.783405
1996 1 0.199738 0.686188 0.750757
1453 1 0.0416573 0.789241 0.749666
1883 1 0.0739692 0.752078 0.812704
737 1 0.208234 0.76946 0.757872
1561 1 0.0878172 0.794999 0.684167
1420 1 0.0680026 0.82972 0.812824
612 1 0.190089 0.755171 0.959137
287 1 0.0521481 0.81021 0.881376
2007 1 0.114668 0.765726 0.980877
1602 1 0.0319908 0.712351 0.867187
1717 1 0.124054 0.804254 0.921988
661 1 0.0426307 0.782596 0.953445
2002 1 0.0316097 0.704494 0.9477
2019 1 0.204934 0.693008 0.916173
1593 1 0.218347 0.791095 0.854708
1142 1 0.108369 0.740036 0.879862
1390 1 0.116503 0.680476 0.931907
1231 1 0.139661 0.821795 0.848035
830 1 0.245338 0.684472 0.997003
538 1 0.176735 0.676274 0.850733
1619 1 0.0983176 0.927831 0.0341822
1646 1 0.124251 0.910869 0.104234
865 1 0.240352 0.953643 0.0480964
773 1 0.105172 0.85232 0.0448386
1626 1 0.156668 0.97952 0.0364513
23 1 0.0454427 0.884259 0.0940732
817 1 0.176177 0.837257 0.0876663
1123 1 0.039772 0.982595 0.0605897
1048 1 0.201123 0.924714 0.106778
1500 1 0.180032 0.903528 0.0376558
1288 1 0.0292858 0.964214 0.131907
1542 1 0.00473776 0.897332 0.0239063
729 1 0.104115 0.989491 0.100281
280 1 0.00126674 0.874538 0.159143
1837 1 0.212989 0.872625 0.163905
923 1 0.00841117 0.927793 0.238104
1862 1 0.24658 0.903759 0.295749
500 1 0.131857 0.950718 0.170795
1131 1 0.12759 0.862795 0.176362
1202 1 0.181577 0.920665 0.230178
1331 1 0.216528 0.97369 0.275286
381 1 0.0778017 0.87958 0.258791
1731 1 0.0825925 0.972289 0.23668
2021 1 0.152808 0.997297 0.237107
629 1 0.176881 0.882121 0.30439
1563 1 0.123108 0.956783 0.315316
854 1 0.0670293 0.915038 0.185004
968 1 0.0494674 0.928979 0.325673
1686 1 0.18541 0.840301 0.232178
126 1 0.214491 0.985736 0.178927
985 1 0.0181602 0.992112 0.201058
1268 1 0.0543854 0.837521 0.197434
862 1 0.0817538 0.922263 0.485356
1217 1 0.118281 0.991336 0.459675
647 1 0.146718 0.947941 0.385794
1191 1 0.139934 0.886369 0.434797
2012 1 0.0357904 0.972277 0.447354
1846 1 0.231961 0.857097 0.458932
1153 1 0.0255319 0.85853 0.351561
663 1 0.123367 0.874666 0.365116
936 1 0.0763855 0.924141 0.395183
405 1 0.00913335 0.918866 0.497061
372 1 0.210379 0.913246 0.412401
1380 1 0.192916 0.932306 0.493637
810 1 0.193486 0.990027 0.347399
442 1 0.0363763 0.869658 0.435538
157 1 0.213112 0.833701 0.382535
1556 1 0.067544 0.956201 0.609293
1415 1 0.0290539 0.903837 0.570135
1187 1 0.100536 0.88124 0.595055
490 1 0.129533 0.957229 0.5423
1039 1 0.173683 0.88171 0.612832
63 1 0.0473996 0.874301 0.647034
1197 1 0.201179 0.960848 0.610449
358 1 0.00556422 0.964488 0.649685
1378 1 0.235189 0.914703 0.563475
548 1 0.147453 0.863161 0.529522
401 1 0.11243 0.920604 0.664693
239 1 0.147735 0.994179 0.65846
753 1 0.223273 0.838604 0.545754
1932 1 0.0644919 0.83777 0.546098
1732 1 0.248431 0.861384 0.660359
1714 1 0.204231 0.930234 0.685703
373 1 0.132589 0.954904 0.730206
1027 1 0.154642 0.852995 0.681882
459 1 0.0373073 0.980251 0.790062
759 1 0.0870822 0.906276 0.804691
397 1 0.090084 0.870483 0.715549
147 1 0.215293 0.854252 0.804661
785 1 0.0496347 0.949035 0.717904
1360 1 0.207868 0.965602 0.774258
82 1 0.164474 0.886874 0.746164
1001 1 0.219895 0.840312 0.728123
389 1 0.116936 0.990798 0.798591
1508 1 0.0252678 0.88985 0.759252
110 1 0.172675 0.921932 0.820757
1308 1 0.237123 0.907863 0.913675
1175 1 0.162795 0.894748 0.893235
365 1 0.0959304 0.934188 0.932138
382 1 0.126826 0.966356 0.866806
1082 1 0.0265025 0.950775 0.966588
263 1 0.0765068 0.858896 0.966009
1170 1 0.205495 0.974149 0.873861
463 1 0.167701 0.860672 0.971755
1434 1 0.0902135 0.877989 0.877092
1033 1 0.0195392 0.877572 0.900731
1965 1 0.18212 0.946857 0.947588
1384 1 0.241143 0.898938 0.988634
668 1 0.00721853 0.931652 0.839456
1397 1 0.204283 0.837242 0.90846
59 1 0.410505 0.0483716 0.0710728
1861 1 0.297664 0.0129057 0.0409911
370 1 0.488569 0.148067 0.126083
1242 1 0.494448 0.0232606 0.0594042
497 1 0.312741 0.0463718 0.148018
1214 1 0.426122 0.117645 0.0981548
2000 1 0.385931 0.0680349 0.153395
1854 1 0.358536 0.104212 0.0575528
1875 1 0.300558 0.109757 0.107268
619 1 0.312082 0.152838 0.00240759
1112 1 0.470069 0.0544741 0.123246
1527 1 0.353102 0.00530237 0.0991486
1103 1 0.333641 0.121202 0.255661
1925 1 0.364968 0.0477424 0.219517
822 1 0.439412 0.111873 0.186343
831 1 0.303344 0.0847468 0.323188
1030 1 0.263364 0.0705763 0.207358
1278 1 0.314539 0.0328502 0.274477
1267 1 0.367077 0.127268 0.324999
1661 1 0.422849 0.135178 0.267022
1902 1 0.29157 0.14132 0.187159
934 1 0.42102 0.0595309 0.269794
1345 1 0.43285 0.0273144 0.195507
354 1 0.268389 0.153659 0.28387
226 1 0.462838 0.12033 0.32653
1156 1 0.498567 0.102523 0.230911
225 1 0.374566 0.144155 0.194207
33 1 0.432643 0.154081 0.414019
123 1 0.486675 0.0123119 0.4706
683 1 0.306511 0.122868 0.434205
597 1 0.28984 0.0401047 0.411089
1802 1 0.392835 0.00737075 0.415132
588 1 0.468787 0.0021744 0.341356
1255 1 0.414119 0.0188453 0.490891
680 1 0.459668 0.0500663 0.399275
960 1 0.334558 0.00672672 0.349801
1706 1 0.397912 0.0986963 0.490636
1078 1 0.382445 0.089333 0.40966
1683 1 0.403492 0.061702 0.342377
375 1 0.340825 0.00263435 0.468446
1742 1 0.284161 0.165904 0.366766
178 1 0.452143 0.161697 0.491592
1211 1 0.261148 0.0235654 0.335611
1342 1 0.416457 0.150907 0.554882
1163 1 0.338278 0.0702116 0.603013
1829 1 0.47711 0.0801757 0.50501
575 1 0.399755 0.0546512 0.648338
1957 1 0.443887 0.114953 0.6124
1374 1 0.285243 0.00349822 0.657167
1912 1 0.266472 0.0234415 0.584954
1151 1 0.322941 0.15032 0.634263
1764 1 0.495531 0.155355 0.655227
881 1 0.473698 0.0392565 0.616585
963 1 0.267046 0.135118 0.580788
1335 1 0.265443 0.0813066 0.653569
1969 1 0.413312 0.0578046 0.560144
224 1 0.337887 0.141884 0.50965
1053 1 0.389337 0.135188 0.667051
908 1 0.308619 0.061376 0.528653
1461 1 0.26426 0.117544 0.501072
326 1 0.265343 0.00538685 0.503537
1814 1 0.256242 0.110764 0.794339
1943 1 0.386136 0.0576978 0.822757
545 1 0.388863 0.108007 0.760674
1724 1 0.323941 0.145669 0.732325
439 1 0.448452 0.153752 0.714885
1395 1 0.324471 0.06104 0.776995
928 1 0.258242 0.151394 0.692685
702 1 0.347813 0.0724077 0.701892
1329 1 0.485223 0.105393 0.764546
787 1 0.461006 0.0840528 0.68253
247 1 0.470065 0.0305788 0.805628
690 1 0.402201 0.0293555 0.748874
1870 1 0.480408 0.0248285 0.729636
966 1 0.25918 0.0686509 0.731365
229 1 0.339875 0.149985 0.807517
1980 1 0.26536 0.0353932 0.977187
634 1 0.306177 0.0817063 0.849047
627 1 0.394042 0.108124 0.977334
1226 1 0.372292 0.0853637 0.890869
1194 1 0.459676 0.16253 0.98107
645 1 0.454605 0.0572221 0.885054
613 1 0.40325 0.0365496 0.949645
763 1 0.301973 0.0671309 0.922586
1733 1 0.353491 0.00672156 0.898346
1262 1 0.253245 0.119106 0.890267
1133 1 0.442783 0.122493 0.920646
540 1 0.465782 0.0799083 0.985883
532 1 0.339739 0.0573491 0.991954
385 1 0.427365 0.11823 0.847192
1315 1 0.285315 0.0063974 0.859797
699 1 0.248241 0.207581 0.148545
553 1 0.331282 0.303524 0.0193443
757 1 0.426546 0.188528 0.142034
684 1 0.309384 0.225719 0.0392212
427 1 0.374517 0.322011 0.114699
1108 1 0.294544 0.259478 0.127178
85 1 0.42108 0.199752 0.0650888
617 1 0.442457 0.258487 0.116344
477 1 0.267389 0.178869 0.0793369
185 1 0.360571 0.249947 0.0888024
984 1 0.462105 0.315405 0.0656342
1596 1 0.342574 0.173063 0.131237
1819 1 0.405035 0.284069 0.032425
2047 1 0.36576 0.262825 0.161632
890 1 0.376704 0.19429 0.00258118
1166 1 0.497921 0.316194 0.00212086
971 1 0.309974 0.212875 0.226601
113 1 0.307367 0.228246 0.317267
1850 1 0.456922 0.212103 0.276072
1954 1 0.425494 0.287418 0.273657
752 1 0.325362 0.289803 0.23976
1412 1 0.378709 0.237904 0.245702
1682 1 0.494256 0.322415 0.238257
1632 1 0.255329 0.2579 0.26241
745 1 0.320554 0.323648 0.168856
1065 1 0.410677 0.322942 0.20236
1 1 0.44062 0.250524 0.19969
1183 1 0.480358 0.17623 0.215822
805 1 0.389 0.195743 0.307669
1642 1 0.319896 0.309255 0.325951
310 1 0.45688 0.194922 0.356018
1964 1 0.387331 0.19104 0.475633
2042 1 0.382188 0.265839 0.347134
760 1 0.301133 0.208973 0.43847
739 1 0.290491 0.293214 0.418118
1546 1 0.470614 0.309453 0.468771
1824 1 0.425776 0.292562 0.404875
1544 1 0.369735 0.246933 0.427588
1354 1 0.397832 0.309214 0.470936
864 1 0.357069 0.174821 0.386227
249 1 0.457 0.26878 0.335019
1218 1 0.249934 0.212789 0.499588
827 1 0.481394 0.209148 0.435667
1615 1 0.328965 0.248668 0.495935
1168 1 0.437613 0.245224 0.493695
809 1 0.263124 0.318513 0.55906
1704 1 0.348198 0.191845 0.573116
1772 1 0.270136 0.317096 0.64612
1826 1 0.382578 0.290933 0.548324
655 1 0.334145 0.286035 0.616203
717 1 0.49243 0.177674 0.565854
1356 1 0.469892 0.252404 0.575418
643 1 0.472627 0.232727 0.650061
1089 1 0.30088 0.224193 0.631088
1843 1 0.39529 0.239029 0.634911
277 1 0.320164 0.324532 0.509131
1921 1 0.446648 0.311127 0.615136
950 1 0.433218 0.229492 0.722775
1584 1 0.421653 0.302812 0.698552
1334 1 0.416752 0.304851 0.794926
843 1 0.44599 0.16672 0.793144
507 1 0.266888 0.274997 0.72712
1098 1 0.319991 0.221716 0.759776
903 1 0.358377 0.195935 0.690097
162 1 0.402639 0.230886 0.791075
924 1 0.286325 0.275968 0.824178
1251 1 0.343928 0.275423 0.692253
2018 1 0.334665 0.312272 0.774634
912 1 0.490022 0.280207 0.748247
1481 1 0.253441 0.186094 0.811186
260 1 0.495808 0.292897 0.830317
1894 1 0.444208 0.239867 0.85694
190 1 0.458642 0.23884 0.994981
997 1 0.35904 0.212869 0.850195
1044 1 0.306974 0.294264 0.903573
1460 1 0.383214 0.258065 0.924766
1903 1 0.319676 0.241872 0.962641
19 1 0.372617 0.167975 0.90962
1291 1 0.483353 0.189275 0.907012
1952 1 0.388498 0.324648 0.970741
2011 1 0.480889 0.28862 0.926832
24 1 0.302724 0.184493 0.89217
554 1 0.428475 0.316608 0.879715
1786 1 0.35949 0.288737 0.843869
1776 1 0.277182 0.468162 0.0733647
560 1 0.397377 0.484173 0.0230831
1812 1 0.357146 0.372175 0.0531953
1853 1 0.352038 0.443513 0.0775
1009 1 0.440701 0.452217 0.0787015
223 1 0.286179 0.390374 0.14644
900 1 0.486015 0.418097 0.139731
1283 1 0.427049 0.381767 0.0197265
14 1 0.260924 0.462529 0.146083
236 1 0.417256 0.388261 0.121807
1885 1 0.416833 0.456961 0.153597
1118 1 0.288793 0.407728 0.0215473
722 1 0.27891 0.342393 0.0762596
398 1 0.478929 0.341374 0.144864
1467 1 0.335348 0.472769 0.16055
986 1 0.282505 0.352893 0.242673
1204 1 0.361443 0.460282 0.232243
3 1 0.455874 0.387995 0.21271
1285 1 0.389459 0.421591 0.30956
1830 1 0.291768 0.497882 0.294408
1181 1 0.45849 0.461617 0.254398
248 1 0.291325 0.427764 0.232464
1611 1 0.391657 0.342835 0.329841
1502 1 0.456303 0.378158 0.299884
754 1 0.362822 0.398862 0.182242
920 1 0.366369 0.352452 0.256584
724 1 0.496233 0.474769 0.186989
910 1 0.376129 0.404575 0.393207
779 1 0.463832 0.402591 0.372638
1648 1 0.329538 0.457062 0.34675
642 1 0.486284 0.448865 0.43203
1097 1 0.261267 0.365091 0.47323
1074 1 0.416585 0.467224 0.369684
2023 1 0.441865 0.373549 0.439933
1243 1 0.332438 0.405541 0.470595
1728 1 0.404719 0.450073 0.446608
979 1 0.274554 0.402667 0.406168
299 1 0.309993 0.46786 0.434308
353 1 0.352004 0.481989 0.500025
202 1 0.313224 0.382792 0.336129
1424 1 0.3565 0.334121 0.407207
568 1 0.407642 0.481803 0.552195
1047 1 0.477147 0.43364 0.513661
501 1 0.390073 0.413408 0.520395
1229 1 0.299212 0.4391 0.550081
399 1 0.384552 0.482684 0.647009
1208 1 0.269429 0.455138 0.631058
1552 1 0.252298 0.392279 0.590575
1582 1 0.328312 0.405235 0.632547
1159 1 0.36375 0.366402 0.574567
1864 1 0.426751 0.351682 0.524018
1326 1 0.407384 0.394823 0.632089
1828 1 0.476088 0.363208 0.658203
1818 1 0.490492 0.418778 0.606995
1143 1 0.440289 0.437001 0.695503
1913 1 0.392718 0.360179 0.747925
156 1 0.461012 0.448509 0.804595
1690 1 0.255708 0.437885 0.823899
721 1 0.301992 0.353816 0.715429
1071 1 0.399489 0.432781 0.765082
1816 1 0.471776 0.367262 0.816687
1702 1 0.360997 0.345497 0.667989
1330 1 0.31298 0.396797 0.779358
1084 1 0.371357 0.413201 0.694762
847 1 0.3168 0.460066 0.687024
1006 1 0.463885 0.367662 0.735641
1581 1 0.339451 0.498748 0.810671
1165 1 0.330944 0.430429 0.851229
433 1 0.340154 0.444546 0.925256
880 1 0.401361 0.487341 0.941194
1947 1 0.478929 0.421357 0.883516
1358 1 0.323461 0.484651 0.988089
1579 1 0.416711 0.413761 0.930235
56 1 0.45843 0.355026 0.950045
17 1 0.400197 0.386205 0.849728
1368 1 0.36701 0.418736 0.994775
441 1 0.466904 0.453954 0.97811
100 1 0.35284 0.367859 0.917567
708 1 0.402921 0.463043 0.862131
1393 1 0.302204 0.362041 0.851723
122 1 0.266939 0.446836 0.910218
1919 1 0.296148 0.357624 0.967606
1884 1 0.266632 0.524368 0.0239845
657 1 0.31088 0.59061 0.0489506
873 1 0.342772 0.66631 0.0174975
36 1 0.29902 0.528315 0.125776
1951 1 0.414981 0.590434 0.0560856
407 1 0.387814 0.664374 0.0840656
1755 1 0.342867 0.616954 0.140816
700 1 0.268214 0.605608 0.112576
1072 1 0.47996 0.594453 0.00458051
1040 1 0.451095 0.523087 0.056413
1874 1 0.404112 0.549483 0.11868
314 1 0.486388 0.602689 0.0800466
1038 1 0.449736 0.636915 0.145145
1600 1 0.338824 0.516042 0.0573028
1948 1 0.474821 0.512838 0.128984
696 1 0.308028 0.664394 0.0876577
1841 1 0.360594 0.546615 0.17938
977 1 0.298323 0.50837 0.216952
1404 1 0.453043 0.651569 0.230554
187 1 0.310417 0.651696 0.329345
1657 1 0.310866 0.595231 0.225569
1988 1 0.430778 0.577111 0.189434
945 1 0.420479 0.504961 0.211071
921 1 0.372034 0.502453 0.294369
1663 1 0.415541 0.559763 0.268161
409 1 0.303344 0.570702 0.299045
1956 1 0.253178 0.628906 0.275157
1670 1 0.469606 0.504196 0.324157
582 1 0.361486 0.609154 0.288494
584 1 0.484508 0.584073 0.33391
1525 1 0.432338 0.627443 0.299228
1857 1 0.425818 0.634732 0.420102
1506 1 0.453985 0.530159 0.404386
1086 1 0.399224 0.576284 0.485977
656 1 0.280624 0.644092 0.450093
1911 1 0.320051 0.568234 0.451729
678 1 0.340032 0.604195 0.386556
901 1 0.384199 0.551955 0.350503
1562 1 0.365947 0.518011 0.418523
975 1 0.298374 0.532538 0.368173
610 1 0.3836 0.659082 0.35491
1667 1 0.262371 0.589583 0.401055
1240 1 0.448934 0.513744 0.485505
1981 1 0.486735 0.655873 0.362614
1941 1 0.454974 0.627922 0.497503
293 1 0.251721 0.552622 0.488359
987 1 0.270372 0.538019 0.640738
1371 1 0.270139 0.505133 0.547625
1639 1 0.3546 0.612167 0.601744
838 1 0.339234 0.548968 0.525951
1662 1 0.42005 0.554282 0.575213
973 1 0.47704 0.632744 0.66079
1503 1 0.488863 0.597251 0.582214
731 1 0.449096 0.547024 0.661366
1782 1 0.339859 0.501542 0.58389
1095 1 0.401324 0.635142 0.664976
207 1 0.419672 0.632244 0.568771
1978 1 0.284313 0.633787 0.528026
533 1 0.353787 0.643125 0.504924
1499 1 0.26528 0.664889 0.608056
467 1 0.484432 0.503855 0.583931
734 1 0.348837 0.648126 0.74199
1225 1 0.290168 0.586028 0.716253
1953 1 0.492543 0.577137 0.781338
1322 1 0.461156 0.509204 0.755389
697 1 0.440957 0.586576 0.724316
295 1 0.413062 0.533253 0.815219
1014 1 0.298353 0.573687 0.80047
402 1 0.367204 0.568789 0.746599
1797 1 0.375501 0.599024 0.822595
583 1 0.327764 0.644506 0.66962
421 1 0.362452 0.562664 0.667312
1807 1 0.304394 0.515808 0.745742
195 1 0.438252 0.642596 0.800748
87 1 0.389805 0.502673 0.719887
1576 1 0.336544 0.637002 0.94663
1543 1 0.264114 0.637428 0.930405
884 1 0.401772 0.57207 0.916994
58 1 0.317934 0.56412 0.978035
659 1 0.2663 0.507918 0.858792
272 1 0.455278 0.508126 0.895032
650 1 0.451903 0.591555 0.850104
304 1 0.304168 0.591079 0.876891
76 1 0.398644 0.625081 0.985406
65 1 0.395611 0.643952 0.88962
464 1 0.265584 0.518879 0.948951
1914 1 0.354601 0.519667 0.888344
1343 1 0.460122 0.655276 0.947851
1148 1 0.487435 0.535285 0.957344
1124 1 0.409805 0.548904 0.989392
88 1 0.277922 0.769233 0.00222103
590 1 0.365101 0.731164 0.0531436
1591 1 0.291439 0.743462 0.0716275
942 1 0.477944 0.819462 0.133868
148 1 0.263665 0.809478 0.101393
861 1 0.48805 0.729101 0.0607233
1402 1 0.279074 0.714721 0.143617
905 1 0.430052 0.780342 0.030666
1545 1 0.352943 0.788521 0.101594
357 1 0.42199 0.76016 0.113843
1154 1 0.3421 0.802412 0.0259804
1638 1 0.363436 0.717277 0.140531
638 1 0.426317 0.689487 0.0223649
10 1 0.250824 0.787866 0.175091
35 1 0.457861 0.708835 0.314504
1926 1 0.396597 0.794823 0.199836
1158 1 0.44083 0.715618 0.177419
1983 1 0.325366 0.750125 0.287601
1132 1 0.401556 0.752427 0.300262
536 1 0.321433 0.746458 0.204407
1035 1 0.302964 0.687538 0.25078
241 1 0.350057 0.831146 0.257616
1147 1 0.481545 0.772019 0.226541
1311 1 0.379543 0.681962 0.280023
782 1 0.35879 0.671323 0.202021
1745 1 0.334474 0.742327 0.481832