ITEM: TIMESTEP
100000
ITEM: NUMBER OF ATOMS
2048
ITEM: BOX BOUNDS pp pp pp
0.0000000000000000e+00 1.1351867295763070e+01
0.0000000000000000e+00 1.1351867295763070e+01
0.0000000000000000e+00 1.1351867295763070e+01
ITEM: ATOMS id type xs ys zs
14 1 0.0661396 0.0650796 0.125857
15 1 0.126756 0.00715902 0.128004
16 1 0.192231 0.0573682 0.120938
8 1 0.128991 0.0672454 0.0642139
12 1 0.186051 0.127919 0.0615741
18 1 0.128287 0.122223 0.127651
10 1 0.0666616 0.127706 0.0663745
9 1 0.000682791 0.12268 0.00603411
3 1 0.06833 0.00340569 0.0575224
4 1 0.00235977 0.0654141 0.0672146
516 1 0.244338 0.0648734 0.0610916
7 1 0.185672 0.00246467 0.0599202
2 1 0.0635437 0.0666198 0.00109925
529 1 0.240382 0.128686 0.128789
13 1 0.00228417 0.0008935 0.122139
26 1 0.0565106 0.0622792 0.247458
34 1 0.060936 0.120978 0.30888
22 1 0.127165 0.0634723 0.188434
30 1 0.183772 0.0642337 0.251543
32 1 0.120699 0.059194 0.312706
35 1 0.128144 0.128598 0.249952
36 1 0.187683 0.127911 0.310531
23 1 0.0657178 0.129352 0.187147
24 1 0.186954 0.133216 0.195323
20 1 0.00252192 0.0580377 0.183516
21 1 0.185065 0.00100636 0.190066
545 1 0.245122 0.125614 0.249897
31 1 0.184554 0.00172959 0.311675
540 1 0.246379 0.0659219 0.3134
532 1 0.243598 0.0624693 0.194295
29 1 0.12054 0.00240954 0.251127
28 1 0.000528073 0.0615992 0.311462
38 1 0.0635479 0.0571517 0.375319
42 1 0.184793 0.0660623 0.377147
47 1 0.121035 0.120793 0.373941
48 1 0.189795 0.12173 0.440823
549 1 0.248246 0.0066072 0.381271
44 1 0.120476 0.0605525 0.435951
46 1 0.0645446 0.123244 0.442349
39 1 0.0600983 0.000789246 0.438557
54 1 0.180972 0.0645506 0.501137
45 1 0.00284392 0.127001 0.375133
552 1 0.247541 0.0621301 0.440479
557 1 0.249219 0.124558 0.378411
40 1 0.00408135 0.0619101 0.443862
60 1 0.183842 0.125791 0.557826
56 1 0.124176 0.0599396 0.56328
62 1 0.0662502 0.0617987 0.620447
58 1 0.0674173 0.124434 0.561032
64 1 0.1912 0.0510918 0.624858
66 1 0.129249 0.121248 0.621547
50 1 0.061627 0.060248 0.503496
52 1 0.00158177 0.0650249 0.562096
577 1 0.247936 0.120195 0.625152
65 1 0.00190346 0.128612 0.62576
57 1 0.00450185 0.130989 0.501924
61 1 0.00313426 0.0036006 0.629268
59 1 0.124736 0.125165 0.499642
74 1 0.0574893 0.0619995 0.752886
77 1 0.123586 0.00326905 0.750976
70 1 0.133499 0.0533643 0.683533
71 1 0.0575388 0.122692 0.687091
83 1 0.122455 0.116438 0.740331
72 1 0.187921 0.126249 0.689497
82 1 0.0638797 0.127087 0.80928
80 1 0.133488 0.0647352 0.80662
78 1 0.192431 0.0614407 0.748024
84 1 0.192838 0.125344 0.813816
75 1 0.0628978 0.00169462 0.813869
588 1 0.249828 0.0619594 0.813154
76 1 -1.41089e-05 0.0639754 0.814342
67 1 0.0603961 0.00136301 0.691682
86 1 0.063567 0.0653985 0.870068
94 1 0.0627039 0.127214 0.931407
90 1 0.183216 0.068033 0.877177
85 1 0.00304257 0.00263154 0.880378
95 1 0.120664 0.122212 0.870942
96 1 0.191287 0.132959 0.942716
92 1 0.117838 0.0650751 0.936834
91 1 0.183428 0.00561054 0.933252
93 1 -0.000468165 0.129329 0.8707
6 1 0.183657 0.0623843 0.99446
5 1 0.124321 0.0035692 0.997702
88 1 0.00264267 0.0676079 0.938064
89 1 0.123869 0.00566922 0.876201
11 1 0.122337 0.126244 0.995267
605 1 0.247946 0.124297 0.881822
87 1 0.0653471 0.00153701 0.939339
1 1 0.00824741 0.00584388 0.997926
112 1 0.0625368 0.323079 0.123584
613 1 0.247961 0.249593 0.00905534
100 1 0.12392 0.186414 0.063065
110 1 0.182683 0.192951 0.126226
109 1 0.0609024 0.190623 0.126168
107 1 0.183791 0.25205 0.0636044
103 1 0.0615615 0.25377 0.0647613
108 1 0.124164 0.312315 0.061258
114 1 0.185844 0.322012 0.129492
113 1 0.121488 0.254685 0.1223
98 1 0.00227983 0.191898 0.0637593
99 1 0.186654 0.191867 0.0018755
616 1 0.243781 0.320162 0.0645824
111 1 0.000659249 0.251342 0.126468
106 1 0.188908 0.319335 0.00122042
105 1 0.120787 0.249489 0.00308817
131 1 0.18098 0.25047 0.312974
117 1 0.0592811 0.254143 0.192151
121 1 0.0706402 0.194081 0.247165
116 1 0.12245 0.19195 0.183656
119 1 0.182227 0.256852 0.184478
123 1 0.188715 0.191522 0.252206
129 1 0.123783 0.25982 0.25004
126 1 0.062603 0.315135 0.25365
132 1 0.123741 0.317086 0.314098
120 1 0.11552 0.320212 0.187045
124 1 0.121519 0.189675 0.310475
127 1 0.0591391 0.250744 0.317546
130 1 0.187125 0.319188 0.25551
637 1 0.248747 0.246219 0.251832
118 1 0.00133244 0.316103 0.179585
122 1 0.00426171 0.185411 0.312321
115 1 -0.000315339 0.181688 0.192823
634 1 0.248389 0.188805 0.312829
630 1 0.251195 0.306556 0.193699
640 1 0.247309 0.309306 0.314268
128 1 0.000477557 0.314593 0.313746
125 1 0.00419082 0.249226 0.251571
143 1 0.186575 0.245121 0.440928
133 1 0.0626463 0.184983 0.374483
135 1 0.185199 0.185519 0.374596
144 1 0.126236 0.306607 0.436451
138 1 0.066718 0.317846 0.374788
141 1 0.124515 0.247614 0.374645
142 1 0.187275 0.308497 0.379488
139 1 0.062757 0.249732 0.436251
136 1 0.120512 0.187729 0.434587
134 1 0.00234277 0.187625 0.43865
646 1 0.24814 0.182426 0.438232
149 1 0.00532582 0.245581 0.501534
140 1 0.00350695 0.309115 0.442516
649 1 0.248204 0.251398 0.36991
147 1 0.18976 0.187365 0.499263
154 1 0.192088 0.307454 0.495545
157 1 0.0690377 0.187527 0.623223
148 1 0.126919 0.188859 0.561076
158 1 0.185017 0.188187 0.61863
155 1 0.191117 0.249382 0.556111
162 1 0.188911 0.314703 0.629648
161 1 0.125667 0.247457 0.621591
151 1 0.0606231 0.250211 0.564536
160 1 0.067186 0.311912 0.622831
156 1 0.128925 0.307871 0.563847
146 1 0.00202145 0.187276 0.564015
153 1 0.12298 0.248698 0.501586
145 1 0.0657539 0.187649 0.501867
150 1 0.0662157 0.309644 0.502017
175 1 0.06575 0.255505 0.810388
169 1 0.06656 0.186054 0.750109
164 1 0.125509 0.185767 0.685204
165 1 0.0666562 0.250903 0.683547
174 1 0.0680131 0.311683 0.745594
168 1 0.130237 0.306931 0.684574
177 1 0.127902 0.248868 0.749886
167 1 0.190643 0.246555 0.684248
180 1 0.129187 0.310894 0.804632
178 1 0.191579 0.312878 0.746968
172 1 0.1237 0.188805 0.810733
171 1 0.192015 0.187406 0.747934
179 1 0.190047 0.246341 0.809407
173 1 0.00381979 0.259544 0.748767
170 1 0.00299591 0.193087 0.81191
176 1 0.00659795 0.315643 0.813625
675 1 0.24745 0.185269 0.676659
688 1 0.248078 0.310396 0.810859
163 1 0.0035158 0.190341 0.696385
682 1 0.248854 0.186898 0.807921
181 1 0.0646227 0.192764 0.868733
183 1 0.19321 0.18872 0.874429
189 1 0.12846 0.250555 0.870059
184 1 0.125745 0.192268 0.936477
186 1 0.0684367 0.314775 0.879403
190 1 0.188432 0.310428 0.879114
191 1 0.187005 0.253274 0.941341
192 1 0.126423 0.313619 0.937714
187 1 0.064062 0.246912 0.937834
185 1 0.00102192 0.254225 0.868457
101 1 0.00523321 0.24742 0.993877
694 1 0.252189 0.197368 0.939748
182 1 0.00324915 0.183347 0.939661
97 1 0.0634072 0.187502 0.997981
188 1 0.00137628 0.313218 0.937065
102 1 0.0582751 0.313411 0.996097
195 1 0.0589362 0.379809 0.0537497
203 1 0.123624 0.378812 0.125824
199 1 0.178413 0.375937 0.0621373
204 1 0.193243 0.432088 0.130069
200 1 0.119476 0.440915 0.0590245
202 1 0.0577773 0.435497 0.124644
263 1 0.188415 0.494661 0.0676424
198 1 0.186579 0.433041 -0.00217791
271 1 0.12312 0.500516 0.127251
708 1 0.24674 0.435552 0.0668959
214 1 0.184674 0.43511 0.261382
205 1 0.0592945 0.378475 0.192003
207 1 0.184169 0.375651 0.195452
210 1 0.0557988 0.441977 0.249601
208 1 0.123855 0.43603 0.191025
211 1 0.0589468 0.376989 0.312822
215 1 0.19186 0.375012 0.320885
213 1 0.121263 0.378371 0.254181
216 1 0.120215 0.435656 0.312086
285 1 0.126796 0.498651 0.252352
287 1 0.186339 0.501309 0.31162
212 1 0.00160214 0.435677 0.315868
793 1 0.245662 0.498142 0.255993
221 1 0.127526 0.369748 0.375208
224 1 0.13058 0.433668 0.444229
218 1 0.0634491 0.439706 0.378905
223 1 0.194169 0.374454 0.437982
222 1 0.186587 0.441418 0.375828
219 1 0.0662225 0.372989 0.441155
297 1 0.127689 0.498981 0.372357
220 1 0.00762936 0.444059 0.439405
732 1 0.247813 0.445872 0.439209
217 1 0.00627272 0.377061 0.383053
229 1 0.128835 0.366991 0.491921
305 1 0.00211769 0.498067 0.496924
227 1 0.0713255 0.3709 0.558263
231 1 0.185862 0.370769 0.56077
234 1 0.0685561 0.43532 0.627408
232 1 0.126027 0.443717 0.563357
236 1 0.189469 0.440065 0.62333
235 1 0.129163 0.377029 0.626953
230 1 0.186207 0.43574 0.504438
740 1 0.250046 0.437343 0.567658
228 1 0.00474157 0.431087 0.559501
226 1 0.0657815 0.442919 0.501213
225 1 0.00326053 0.374177 0.502664
237 1 0.0653181 0.375845 0.685609
239 1 0.19045 0.373594 0.685399
245 1 0.12933 0.36992 0.741485
242 1 0.0609711 0.436998 0.747959
246 1 0.19171 0.439314 0.749093
240 1 0.128939 0.437966 0.686301
248 1 0.128683 0.433318 0.8118
243 1 0.0677021 0.372221 0.810392
247 1 0.192723 0.377247 0.811803
241 1 0.0015889 0.374852 0.749117
238 1 0.0041134 0.436724 0.683842
756 1 0.25263 0.435271 0.810349
333 1 0.132001 0.498374 0.748757
335 1 0.185453 0.496407 0.813281
256 1 0.124519 0.434086 0.931159
253 1 0.12904 0.36916 0.871832
251 1 0.0642315 0.371513 0.935785
255 1 0.190919 0.372637 0.937566
250 1 0.0676846 0.436277 0.871915
254 1 0.185484 0.430085 0.87236
341 1 0.000865505 0.499907 0.872033
347 1 0.189579 0.494899 0.938554
705 1 0.248687 0.378621 1.00107
197 1 0.124136 0.378089 0.996735
194 1 0.0655153 0.444658 0.992076
764 1 0.24854 0.433504 0.933569
259 1 0.0639778 0.500186 0.0636726
264 1 0.122232 0.566249 0.0601406
274 1 0.118624 0.621498 0.127081
266 1 0.0600942 0.625033 0.0599175
268 1 0.183964 0.625733 0.0625603
272 1 0.184336 0.564129 0.12064
270 1 0.0591739 0.563496 0.125855
781 1 0.248478 0.502712 0.126374
785 1 0.245173 0.625344 0.131114
261 1 0.132479 0.505538 0.00253354
262 1 0.192017 0.56675 0.00351457
292 1 0.187772 0.628143 0.311176
280 1 0.185458 0.62356 0.194468
282 1 0.0643096 0.561675 0.248855
278 1 0.127363 0.56034 0.186358
288 1 0.124657 0.565371 0.311901
286 1 0.180027 0.563172 0.25291
290 1 0.0593264 0.6226 0.310546
279 1 0.0586248 0.624382 0.187726
291 1 0.125051 0.625987 0.250503
275 1 0.0655032 0.498742 0.190532
284 1 0.00176875 0.560759 0.314937
277 1 0.187845 0.499294 0.190315
801 1 0.249721 0.62191 0.249682
283 1 0.0649163 0.500769 0.315546
796 1 0.245688 0.564311 0.312087
788 1 0.248235 0.561272 0.191154
294 1 0.0633438 0.565131 0.378199
298 1 0.189277 0.562904 0.37315
302 1 0.0583793 0.626168 0.440856
303 1 0.127256 0.622758 0.376413
300 1 0.126956 0.565608 0.447601
304 1 0.189542 0.625723 0.43454
805 1 0.247456 0.500885 0.370425
295 1 0.0693179 0.502672 0.441269
299 1 0.19 0.506487 0.43891
293 1 0.00331134 0.504091 0.378933
322 1 0.125099 0.627737 0.620788
312 1 0.121615 0.562316 0.561841
318 1 0.0591676 0.562137 0.62454
320 1 0.185198 0.562958 0.622027
314 1 0.0637196 0.625132 0.566672
316 1 0.194526 0.630326 0.565943
311 1 0.19006 0.504039 0.564217
309 1 0.128247 0.50175 0.503091
319 1 0.122062 0.504108 0.624399
307 1 0.0547739 0.501962 0.565985
310 1 0.1894 0.564939 0.501852
817 1 0.250075 0.501141 0.507654
306 1 0.0554475 0.563236 0.506055
825 1 0.24628 0.628835 0.49948
315 1 0.126092 0.624684 0.50383
330 1 0.0637237 0.565594 0.749862
338 1 0.0594507 0.62582 0.814541
340 1 0.190804 0.620433 0.811151
326 1 0.12897 0.563256 0.684588
334 1 0.186608 0.563473 0.74913
327 1 0.0696104 0.625185 0.689395
339 1 0.127837 0.627091 0.748355
328 1 0.183312 0.626169 0.685539
323 1 0.0645516 0.50019 0.685901
336 1 0.12603 0.559293 0.811001
836 1 0.246207 0.568334 0.690859
325 1 0.189429 0.502866 0.689681
841 1 0.250708 0.502697 0.750409
844 1 0.248771 0.561732 0.814746
337 1 0.00197597 0.627296 0.747526
329 1 0.00312236 0.504933 0.747554
331 1 0.0629101 0.501301 0.810697
342 1 0.0629794 0.561515 0.870745
352 1 0.18701 0.622957 0.940967
346 1 0.187582 0.568552 0.875282
351 1 0.12332 0.627101 0.871015
348 1 0.129407 0.56318 0.940471
350 1 0.0682983 0.623982 0.932077
343 1 0.0672723 0.502258 0.935245
267 1 0.119937 0.625579 0.998081
349 1 0.000303866 0.626041 0.879195
258 1 0.0675885 0.560094 0.999494
345 1 0.128045 0.500237 0.873958
344 1 0.00641749 0.561365 0.934236
359 1 0.0602019 0.74388 0.060299
370 1 0.186852 0.809579 0.120283
356 1 0.122722 0.68668 0.0595487
363 1 0.186301 0.741452 0.0647273
369 1 0.125779 0.746456 0.127071
364 1 0.128875 0.808725 0.0609397
368 1 0.0703898 0.809865 0.120186
366 1 0.181006 0.680735 0.125832
365 1 0.0598218 0.68712 0.119074
866 1 0.247154 0.689165 0.0646352
879 1 0.247185 0.751063 0.12293
362 1 0.191094 0.806774 0.00340182
360 1 -0.000657638 0.807109 0.060622
361 1 0.12632 0.749282 0.000773625
355 1 0.189627 0.681843 0.00341058
377 1 0.0634233 0.689459 0.254719
379 1 0.183365 0.687601 0.252367
372 1 0.12427 0.688265 0.183863
388 1 0.131298 0.812251 0.314242
373 1 0.060157 0.750981 0.180042
376 1 0.12609 0.814953 0.186737
385 1 0.121103 0.751834 0.246555
375 1 0.18536 0.746625 0.191071
386 1 0.183487 0.810217 0.24464
387 1 0.190702 0.748364 0.310221
383 1 0.0684491 0.753175 0.312594
382 1 0.0647695 0.813155 0.250276
380 1 0.126743 0.687061 0.312362
378 1 0.000294224 0.680658 0.311341
893 1 0.246761 0.752988 0.248551
886 1 0.247366 0.815948 0.183602
896 1 0.246487 0.81231 0.307813
890 1 0.249768 0.686534 0.309306
381 1 0.00112442 0.749693 0.255494
883 1 0.244677 0.688184 0.191478
371 1 0.00732486 0.684532 0.19581
384 1 0.00570708 0.813583 0.311716
374 1 0.00438639 0.812575 0.181229
389 1 0.0662252 0.687172 0.375057
391 1 0.186912 0.688827 0.375712
394 1 0.0657528 0.811755 0.378644
397 1 0.125025 0.750169 0.372905
398 1 0.193513 0.810928 0.372372
399 1 0.187482 0.752757 0.439679
395 1 0.0641303 0.745703 0.441796
400 1 0.120623 0.811902 0.441635
403 1 0.191352 0.69552 0.4981
392 1 0.132723 0.687023 0.438412
393 1 0.00346765 0.746287 0.375476
410 1 0.192578 0.815424 0.500054
396 1 0.00373834 0.810301 0.438273
905 1 0.24845 0.745351 0.378019
902 1 0.247836 0.684556 0.434035
401 1 0.0575619 0.685828 0.49667
406 1 0.0599904 0.81211 0.502956
404 1 0.123009 0.686919 0.563809
414 1 0.184409 0.689465 0.628986
407 1 0.0608759 0.748943 0.562208
413 1 0.0618861 0.692733 0.625397
412 1 0.125282 0.808005 0.560151
417 1 0.133021 0.753176 0.629723
411 1 0.18886 0.755896 0.561115
418 1 0.192162 0.812814 0.630836
416 1 0.0592302 0.801484 0.628817
409 1 0.129241 0.752964 0.501512
436 1 0.125428 0.815785 0.817084
420 1 0.126103 0.692255 0.691121
433 1 0.120579 0.751775 0.756922
427 1 0.198576 0.684802 0.753942
435 1 0.186355 0.754269 0.812167
421 1 0.0595559 0.744585 0.691975
434 1 0.188602 0.814183 0.751076
430 1 0.0627894 0.813737 0.747072
424 1 0.131426 0.808118 0.689125
423 1 0.191547 0.744227 0.692387
431 1 0.0648796 0.743491 0.81829
425 1 0.0628531 0.685433 0.75425
428 1 0.127502 0.68796 0.808875
432 1 0.00948886 0.812648 0.816455
931 1 0.248554 0.679019 0.690713
422 1 0.00181528 0.812239 0.691825
419 1 0.000813953 0.684138 0.685843
426 1 -0.000951969 0.68985 0.811546
437 1 0.0637914 0.689803 0.878918
445 1 0.123436 0.751994 0.873482
439 1 0.18984 0.696934 0.878684
442 1 0.0632154 0.809726 0.880782
446 1 0.187249 0.811772 0.876706
447 1 0.186073 0.751894 0.939931
443 1 0.066023 0.740652 0.93927
448 1 0.127008 0.812687 0.933551
440 1 0.133692 0.687216 0.942082
358 1 0.0672919 0.809845 0.999005
444 1 0.000210786 0.809616 0.938137
357 1 0.000960166 0.749482 0.99836
353 1 0.0614924 0.683657 0.999158
956 1 0.248958 0.811847 0.936323
438 1 -0.00233902 0.68962 0.940574
441 1 0.00141795 0.75114 0.879572
950 1 0.249882 0.688213 0.939195
451 1 0.0647742 0.8761 0.0659429
460 1 0.188592 0.937995 0.124465
455 1 0.18585 0.874551 0.0612483
459 1 0.126872 0.878003 0.12226
458 1 0.0659992 0.940294 0.124185
456 1 0.127301 0.941173 0.0657272
452 1 0.00449022 0.940253 0.0625283
969 1 0.246974 0.874022 0.125048
457 1 0.00116992 0.871878 0.121292
449 1 0.0069262 0.869435 0.000754125
450 1 0.0661472 0.937919 0.00096728
964 1 0.249804 0.937195 0.0623217
461 1 0.067952 0.873027 0.184646
463 1 0.184775 0.877222 0.187835
470 1 0.181244 0.939174 0.248756
466 1 0.0622072 0.943521 0.248778
464 1 0.12654 0.941506 0.185808
472 1 0.126896 0.93865 0.313477
471 1 0.184351 0.872537 0.311195
467 1 0.0616889 0.881107 0.312076
469 1 0.122292 0.878844 0.25421
468 1 0.00144407 0.939266 0.307961
462 1 0.00417581 0.930159 0.180269
977 1 0.248075 0.876863 0.247746
465 1 -0.000467378 0.868263 0.245367
974 1 0.248948 0.937696 0.186543
980 1 0.246321 0.937804 0.310299
25 1 0.00129035 0.999343 0.249303
27 1 0.0554979 1.00019 0.311272
19 1 0.0611382 0.996617 0.186001
479 1 0.185073 0.875189 0.430079
477 1 0.121727 0.873128 0.373524
478 1 0.186073 0.936011 0.369342
474 1 0.056537 0.934659 0.379157
475 1 0.0621168 0.874195 0.433557
480 1 0.122534 0.934092 0.435696
41 1 0.124367 0.996508 0.379564
43 1 0.180474 0.998092 0.446611
486 1 0.187776 0.93404 0.497085
988 1 0.247063 0.936399 0.435298
985 1 0.2481 0.873533 0.371196
561 1 0.249767 0.999937 0.499222
993 1 0.249427 0.872774 0.49999
482 1 0.0573604 0.933452 0.494752
485 1 0.126428 0.87536 0.496056
53 1 0.123978 0.99904 0.499491
483 1 0.0633508 0.87142 0.568666
487 1 0.187122 0.879393 0.560543
490 1 0.0604072 0.935574 0.623235
491 1 0.13007 0.867381 0.625528
488 1 0.116936 0.934322 0.556464
492 1 0.192078 0.941876 0.62824
51 1 0.060442 0.998281 0.563052
63 1 0.125793 0.993017 0.62492
55 1 0.183866 0.995283 0.562415
1001 1 0.249079 0.877137 0.625797
493 1 0.0633465 0.869601 0.676535
501 1 0.12228 0.878319 0.750186
495 1 0.185819 0.871804 0.687036
504 1 0.122871 0.936233 0.813497
498 1 0.0665831 0.94118 0.751776
496 1 0.12268 0.934837 0.687455
497 1 0.00508234 0.879549 0.745728
502 1 0.183021 0.93127 0.752672
499 1 0.0617998 0.875048 0.81171
503 1 0.191803 0.869365 0.814428
69 1 0.19259 0.994911 0.688677
585 1 0.248177 0.992433 0.753641
1006 1 0.247969 0.931674 0.693478
500 1 0.00212286 0.938494 0.809456
79 1 0.183744 0.996054 0.810946
512 1 0.123584 0.94107 0.941737
509 1 0.120072 0.878669 0.871839
511 1 0.184871 0.880545 0.93761
506 1 0.0661023 0.94121 0.872816
510 1 0.190351 0.937295 0.87562
507 1 0.0651719 0.876441 0.94061
505 1 0.00508798 0.877701 0.875429
453 1 0.125642 0.877509 1.00062
454 1 0.186686 0.942217 0.998046
961 1 0.249119 0.876536 0.998761
597 1 0.249046 1.0003 0.877025
508 1 0.00344236 0.940121 0.941725
1041 1 0.492544 0.126224 0.12705
530 1 0.369652 0.123755 0.127274
520 1 0.371213 0.06656 0.05865
528 1 0.43446 0.0624868 0.124506
522 1 0.309729 0.118817 0.0594281
524 1 0.434878 0.125679 0.0579492
526 1 0.301525 0.0634196 0.128628
527 1 0.367681 0.00928836 0.128714
517 1 0.378538 0.00265065 0.00114447
1025 1 0.495574 0.00666775 0.000622774
519 1 0.437814 0.00538185 0.062288
1037 1 0.497686 0.00450854 0.125182
1028 1 0.498815 0.0714602 0.0632459
544 1 0.369587 0.0634697 0.315967
534 1 0.363536 0.0670746 0.191192
542 1 0.431899 0.063317 0.252357
535 1 0.303319 0.122512 0.193017
536 1 0.433156 0.130294 0.190884
548 1 0.435349 0.125392 0.308973
538 1 0.308532 0.0666052 0.253941
547 1 0.371892 0.125362 0.253647
546 1 0.310092 0.129265 0.315832
1057 1 0.495068 0.126955 0.247261
531 1 0.310454 -0.000434149 0.189871
1052 1 0.495839 0.0649888 0.317721
539 1 0.30752 -5.94664e-05 0.318444
1044 1 0.498088 0.0659477 0.187727
533 1 0.432362 0.00409313 0.1878
550 1 0.310049 0.0650896 0.373298
555 1 0.444249 0.000690674 0.435885
554 1 0.432434 0.0629128 0.37548
559 1 0.375298 0.12571 0.375223
560 1 0.434927 0.121586 0.434446
558 1 0.309727 0.122065 0.43852
556 1 0.37706 0.0601269 0.440614
566 1 0.439752 0.0651985 0.500587
562 1 0.31482 0.0606538 0.495308
576 1 0.44293 0.0621219 0.620868
578 1 0.372442 0.118867 0.619802
568 1 0.377611 0.0557348 0.564367
574 1 0.314521 0.0595288 0.623996
572 1 0.43868 0.127691 0.562328
570 1 0.313034 0.123673 0.561306
569 1 0.256409 0.122521 0.498951
571 1 0.372409 0.125122 0.50105
564 1 0.250724 0.0568517 0.568254
1089 1 0.499569 0.126829 0.622514
592 1 0.374972 0.0669596 0.813344
582 1 0.374128 0.0620484 0.689399
590 1 0.437726 0.0671142 0.749595
595 1 0.373112 0.124441 0.744294
583 1 0.310068 0.119439 0.681585
584 1 0.439077 0.12484 0.679676
594 1 0.313734 0.129867 0.80874
586 1 0.310302 0.062482 0.75046
596 1 0.43294 0.130255 0.811863
580 1 0.254888 0.0560535 0.686986
1100 1 0.498271 0.0684478 0.814841
591 1 0.439185 0.00228841 0.811945
589 1 0.378471 0.00353106 0.753795
581 1 0.438383 0.00255647 0.685691
1105 1 0.497181 0.127737 0.745576
593 1 0.252093 0.124189 0.747279
608 1 0.436842 0.135065 0.939484
598 1 0.310823 0.0601832 0.875858
602 1 0.43669 0.0654272 0.873196
607 1 0.372367 0.124988 0.879554
606 1 0.309102 0.131568 0.940215
604 1 0.371423 0.064309 0.937194
601 1 0.373022 0.00285786 0.872732
599 1 0.311863 0.00244903 0.938349
1117 1 0.493505 0.128362 0.872037
1112 1 0.496199 0.0649881 0.933145
523 1 0.370598 0.12494 0.999474
521 1 0.250889 0.122926 1.00165
600 1 0.249066 0.0604731 0.936827
518 1 0.436326 0.0666975 0.994043
1109 1 0.500897 0.0070099 0.871784
1033 1 0.496042 0.123167 0.996916
514 1 0.313569 0.0625347 0.99611
513 1 0.251369 0.00232991 0.996055
622 1 0.429471 0.187865 0.126218
621 1 0.30418 0.179377 0.126001
625 1 0.368691 0.248248 0.131644
612 1 0.370181 0.184455 0.0639505
619 1 0.435168 0.248604 0.0648762
624 1 0.314179 0.313375 0.131312
615 1 0.313132 0.248535 0.0668758
620 1 0.372589 0.31267 0.0630919
626 1 0.43353 0.313872 0.124689
1135 1 0.499981 0.247998 0.124033
623 1 0.252216 0.250246 0.123613
617 1 0.374769 0.250415 0.00470457
618 1 0.43596 0.310761 0.00267246
1122 1 0.498279 0.187116 0.0600422
614 1 0.305303 0.314655 0.00488792
610 1 0.251186 0.181919 0.0638711
611 1 0.435881 0.18827 0.00398754
609 1 0.310698 0.192578 0.00120039
633 1 0.310676 0.184764 0.253746
641 1 0.377156 0.247991 0.255044
628 1 0.371837 0.185196 0.185586
631 1 0.435347 0.247967 0.188272
635 1 0.438397 0.187596 0.250676
629 1 0.315461 0.245698 0.1967
638 1 0.314514 0.3112 0.252778
632 1 0.374865 0.308541 0.190103
642 1 0.435638 0.31264 0.255673
639 1 0.311199 0.250223 0.313643
636 1 0.375674 0.184519 0.316928
643 1 0.439136 0.247756 0.312191
644 1 0.374384 0.310419 0.316979
627 1 0.248411 0.190743 0.189264
1139 1 0.493947 0.188026 0.182682
1149 1 0.499191 0.24954 0.246594
1142 1 0.494958 0.308807 0.184047
645 1 0.310417 0.186012 0.375739
653 1 0.369269 0.248728 0.378554
647 1 0.437185 0.184866 0.37168
655 1 0.434335 0.251678 0.442233
650 1 0.310982 0.312736 0.369649
654 1 0.435977 0.304787 0.373555
651 1 0.305196 0.245721 0.434395
648 1 0.371793 0.184307 0.438209
656 1 0.378968 0.312862 0.434803
652 1 0.250688 0.313737 0.436898
1158 1 0.496427 0.187111 0.438169
661 1 0.249786 0.249851 0.495961
1164 1 0.497744 0.314622 0.435749
1161 1 0.496319 0.245671 0.376608
1173 1 0.49891 0.248519 0.500493
657 1 0.310194 0.18706 0.497129
659 1 0.439604 0.185318 0.495283
663 1 0.307587 0.24798 0.556517
673 1 0.371383 0.250158 0.621178
670 1 0.436387 0.191449 0.622893
660 1 0.372775 0.189639 0.555319
674 1 0.433253 0.316779 0.625883
667 1 0.439472 0.251824 0.569306
672 1 0.313205 0.312405 0.620795
668 1 0.377537 0.318453 0.564302
669 1 0.312471 0.185643 0.620098
664 1 0.254168 0.317877 0.563662
658 1 0.250552 0.185597 0.563729
1176 1 0.49759 0.312982 0.565257
665 1 0.372546 0.252187 0.49865
671 1 0.251371 0.249008 0.621484
666 1 0.435606 0.315701 0.50039
662 1 0.309234 0.312781 0.503679
683 1 0.431902 0.190263 0.74978
677 1 0.320231 0.245455 0.682313
676 1 0.375401 0.181225 0.681452
679 1 0.428366 0.246953 0.683236
689 1 0.373235 0.247566 0.75296
687 1 0.315137 0.249357 0.811354
690 1 0.437926 0.31035 0.748557
691 1 0.435202 0.255596 0.809425
680 1 0.376044 0.31662 0.686455
686 1 0.314755 0.311135 0.750169
692 1 0.375127 0.311519 0.812125
681 1 0.31104 0.188444 0.744898
684 1 0.37234 0.187947 0.814781
678 1 0.254183 0.31052 0.687731
1197 1 0.501289 0.253736 0.752214
685 1 0.25465 0.247274 0.747503
1190 1 0.491928 0.304439 0.68265
1187 1 0.496696 0.193167 0.690092
693 1 0.313411 0.188803 0.874952
695 1 0.43215 0.193841 0.875564
704 1 0.375723 0.316615 0.938631
698 1 0.318958 0.313288 0.874687
701 1 0.377427 0.256292 0.877176
702 1 0.44032 0.312217 0.870335
699 1 0.312659 0.256523 0.937724
696 1 0.373039 0.196626 0.939006
703 1 0.439698 0.25255 0.939806
700 1 0.252963 0.316277 0.937597
697 1 0.251386 0.251739 0.87194
1206 1 0.494902 0.192646 0.932224
1212 1 0.49724 0.311474 0.933966
707 1 0.306206 0.375271 0.0642904
711 1 0.434416 0.372177 0.062299
716 1 0.435629 0.433548 0.122983
775 1 0.441567 0.497039 0.0684087
712 1 0.371532 0.434722 0.0655078
715 1 0.37697 0.372548 0.129798
714 1 0.308015 0.440809 0.128678
771 1 0.311416 0.495336 0.0666886
783 1 0.374091 0.496424 0.122377
713 1 0.252171 0.37517 0.134637
1225 1 0.494688 0.374524 0.12404
1220 1 0.495891 0.430341 0.0625853
773 1 0.37985 0.497788 7.42308e-05
769 1 0.25578 0.498576 0.00501685
710 1 0.441338 0.43884 0.0018308
717 1 0.315972 0.375406 0.188382
725 1 0.377669 0.381345 0.24871
719 1 0.436219 0.375277 0.186233
722 1 0.315854 0.437211 0.250153
726 1 0.435188 0.439987 0.244237
720 1 0.374769 0.436766 0.184418
728 1 0.379456 0.43362 0.31254
723 1 0.310656 0.372149 0.316529
727 1 0.438063 0.370359 0.31229
795 1 0.313707 0.496994 0.310169
724 1 0.252954 0.436771 0.315953
1233 1 0.495854 0.371858 0.246851
721 1 0.254839 0.375347 0.249289
718 1 0.252717 0.435786 0.194695
1305 1 0.497059 0.490916 0.247435
1236 1 0.496722 0.431464 0.31051
789 1 0.437143 0.496996 0.181592
733 1 0.367149 0.377426 0.373367
736 1 0.371046 0.434331 0.436031
730 1 0.311038 0.440697 0.376529
807 1 0.312418 0.49782 0.439136
734 1 0.439182 0.433747 0.370489
735 1 0.440185 0.376535 0.440611
731 1 0.312374 0.367577 0.441273
729 1 0.255104 0.376648 0.378139
811 1 0.435544 0.492926 0.436265
1329 1 0.495605 0.496722 0.496213
1317 1 0.498744 0.496823 0.370318
809 1 0.374503 0.49896 0.380833
821 1 0.375344 0.498008 0.496925
739 1 0.314285 0.372818 0.563481
743 1 0.437459 0.37633 0.562744
747 1 0.374766 0.381094 0.624716
748 1 0.437135 0.436763 0.624428
744 1 0.373359 0.436943 0.564852
746 1 0.308482 0.440949 0.630085
745 1 0.248728 0.375871 0.624768
742 1 0.437993 0.434794 0.506257
1257 1 0.496523 0.374455 0.626369
823 1 0.437581 0.499019 0.562732
737 1 0.250369 0.376016 0.503572
738 1 0.308706 0.438607 0.504453
741 1 0.374598 0.379607 0.503704
749 1 0.311743 0.376647 0.687538
757 1 0.373483 0.376814 0.748885
751 1 0.438757 0.372549 0.68947
758 1 0.440848 0.440753 0.751634
754 1 0.309484 0.436618 0.749078
755 1 0.312139 0.368782 0.811748
752 1 0.37041 0.440885 0.686521
760 1 0.37417 0.443291 0.808656
759 1 0.431778 0.374447 0.809315
753 1 0.253751 0.37313 0.744352
843 1 0.307759 0.498376 0.81165
1265 1 0.496805 0.377547 0.749647
1353 1 0.499866 0.497631 0.748575
1262 1 0.497105 0.440226 0.680813
1268 1 0.49875 0.431114 0.811229
750 1 0.251466 0.436131 0.687623
837 1 0.43617 0.498844 0.690668
765 1 0.377799 0.373637 0.874659
762 1 0.314131 0.432945 0.870052
763 1 0.311782 0.375179 0.937423
766 1 0.438357 0.438305 0.873412
767 1 0.441418 0.377755 0.933342
768 1 0.372087 0.436966 0.935865
855 1 0.314532 0.499688 0.935056
761 1 0.250406 0.376305 0.872652
853 1 0.252479 0.497712 0.873268
859 1 0.441843 0.496814 0.937665
857 1 0.380144 0.499898 0.876876
709 1 0.371184 0.374463 0.999911
1276 1 0.499473 0.435453 0.934011
706 1 0.313507 0.439344 0.999206
776 1 0.376679 0.561337 0.0580814
786 1 0.369615 0.624635 0.122857
778 1 0.313868 0.622999 0.0586843
780 1 0.445487 0.623102 0.0593643
772 1 0.25189 0.560985 0.061593
782 1 0.312815 0.55883 0.123878
784 1 0.435097 0.566962 0.121157
774 1 0.441368 0.558222 0.00302935
804 1 0.437817 0.620967 0.309552
802 1 0.308847 0.623013 0.312416
798 1 0.436873 0.556934 0.242955
790 1 0.380285 0.560419 0.186115
791 1 0.311478 0.626175 0.18702
803 1 0.36879 0.621871 0.248614
792 1 0.429309 0.626777 0.190181
794 1 0.314878 0.557476 0.249955
800 1 0.371819 0.558825 0.312577
787 1 0.311031 0.500254 0.185846
1300 1 0.491846 0.563271 0.181908
799 1 0.435191 0.499911 0.306522
797 1 0.374399 0.50006 0.248653
806 1 0.313117 0.559927 0.371642
816 1 0.439786 0.617862 0.432647
810 1 0.43891 0.560578 0.365417
815 1 0.379019 0.621931 0.374995
814 1 0.30876 0.62602 0.437994
812 1 0.370165 0.564929 0.438477
822 1 0.44014 0.554023 0.501106
813 1 0.25011 0.625523 0.370808
808 1 0.254843 0.56231 0.432042
1325 1 0.498443 0.623684 0.371163
828 1 0.439966 0.623663 0.56605
824 1 0.37575 0.564002 0.559851
834 1 0.374101 0.628429 0.629312
830 1 0.310901 0.56541 0.624749
832 1 0.432931 0.564445 0.627927
826 1 0.319707 0.623195 0.562493
819 1 0.314615 0.502812 0.561512
833 1 0.251789 0.627711 0.625852
829 1 0.250796 0.507045 0.625954
827 1 0.384053 0.623201 0.498414
820 1 0.255566 0.569292 0.558092
1332 1 0.49542 0.563362 0.563799
831 1 0.372467 0.504677 0.628258
818 1 0.313579 0.563913 0.500677
848 1 0.371623 0.559231 0.816974
838 1 0.376588 0.566084 0.69181
852 1 0.435454 0.62146 0.81228
846 1 0.436795 0.564766 0.750903
839 1 0.312276 0.622682 0.688121
851 1 0.37739 0.627031 0.751588
840 1 0.437714 0.628332 0.688027
850 1 0.312344 0.623087 0.814929
842 1 0.31652 0.56142 0.753556
845 1 0.374599 0.498911 0.749227
847 1 0.437429 0.50265 0.812829
849 1 0.255504 0.622181 0.755934
835 1 0.307735 0.502984 0.688404
1356 1 0.497462 0.560713 0.817751
854 1 0.310095 0.55956 0.874612
860 1 0.377873 0.56137 0.942286
858 1 0.434569 0.559048 0.876336
862 1 0.310768 0.618187 0.936171
863 1 0.376605 0.625054 0.883162
864 1 0.440667 0.62167 0.941274
779 1 0.376043 0.626224 0.999294
861 1 0.254994 0.624406 0.877385
856 1 0.251629 0.553556 0.942424
777 1 0.25168 0.629384 0.993946
1373 1 0.49851 0.624704 0.873344
770 1 0.311868 0.558045 0.99842
878 1 0.433047 0.681858 0.123911
882 1 0.434603 0.815408 0.127169
868 1 0.373654 0.685342 0.0574557
875 1 0.433762 0.750864 0.0709667
877 1 0.312166 0.688012 0.124359
874 1 0.437904 0.815305 0.00111481
871 1 0.323353 0.750365 0.061549
881 1 0.368751 0.755896 0.136767
876 1 0.373323 0.8136 0.0616772
880 1 0.313542 0.817045 0.126091
1391 1 0.497236 0.747776 0.133259
869 1 0.252342 0.745117 0.00129858
1378 1 0.49652 0.692179 0.0617725
872 1 0.25462 0.809262 0.0664604
1384 1 0.495955 0.815411 0.0660455
870 1 0.30719 0.808898 0.00138233
894 1 0.307923 0.814325 0.247721
889 1 0.313174 0.686847 0.247478
884 1 0.369699 0.686433 0.187626
897 1 0.368295 0.754187 0.251267
899 1 0.437472 0.758286 0.313805
885 1 0.302219 0.746976 0.186959
888 1 0.370296 0.818004 0.190682
887 1 0.437696 0.750011 0.19381
898 1 0.433542 0.815653 0.252841
895 1 0.311517 0.75169 0.316205
900 1 0.368759 0.817125 0.312531