ITEM: TIMESTEP
100000
ITEM: NUMBER OF ATOMS
2048
ITEM: BOX BOUNDS pp pp pp
0.0000000000000000e+00 1.2302095357258066e+01
0.0000000000000000e+00 1.2302095357258066e+01
0.0000000000000000e+00 1.2302095357258066e+01
ITEM: ATOMS id type xs ys zs
520 1 0.113451 0.134874 0.112137
1840 1 0.0996682 0.0508398 0.096361
235 1 0.209408 0.0712251 0.0908421
1348 1 0.0828956 0.0600759 0.0151647
1331 1 0.238567 0.139363 0.0356795
988 1 0.027766 0.0838193 0.0841886
2039 1 0.148929 0.098658 0.0438718
269 1 0.0768062 0.135625 0.0429906
289 1 0.196229 0.139061 0.117838
1438 1 0.0353459 0.155733 0.120663
371 1 0.160709 0.0712025 0.149179
1490 1 0.157113 0.0174452 0.0574281
829 1 0.231519 0.0321666 0.155983
758 1 0.0378556 0.0262553 0.165267
1694 1 0.208847 0.0122272 0.291483
511 1 0.21248 0.105394 0.280116
361 1 0.0710407 0.024422 0.267448
1653 1 0.14655 0.0440847 0.249839
1321 1 0.159621 0.112574 0.215177
1663 1 0.0886949 0.0850718 0.202255
991 1 0.0198211 0.134058 0.269394
1552 1 0.23122 0.106313 0.175998
6 1 0.0187853 0.0568759 0.323689
1001 1 0.117105 0.108244 0.283006
850 1 0.00289936 0.0642423 0.240943
1494 1 0.0658231 0.165674 0.199694
669 1 0.0106772 0.0470484 0.414289
1344 1 0.125874 0.0581816 0.423294
1493 1 0.224802 0.15336 0.432837
670 1 0.210941 0.0431939 0.412041
1873 1 0.179344 0.12806 0.362915
1560 1 0.00782422 0.133984 0.427918
966 1 0.0836016 0.113501 0.458878
1190 1 0.0660697 0.0942998 0.375283
1364 1 0.160353 0.054668 0.346734
433 1 0.192062 0.0790072 0.478149
87 1 0.0760004 0.0182889 0.365468
620 1 0.0521306 0.0527493 0.489911
1221 1 0.147435 0.158611 0.433428
1488 1 0.108941 0.14125 0.530025
724 1 0.173676 0.0821475 0.598675
102 1 0.117838 0.117929 0.635049
1594 1 0.21299 0.0186203 0.646624
1821 1 0.232138 0.099595 0.549071
38 1 0.131064 0.0616607 0.536185
1467 1 0.057838 0.11173 0.584917
1316 1 0.12937 0.0428685 0.651476
243 1 0.1966 0.0131277 0.540296
1827 1 0.0683628 0.0369012 0.60237
144 1 0.000622106 0.00358282 0.660039
1413 1 0.0321618 0.154287 0.500894
651 1 0.182461 0.155 0.500801
1709 1 0.0471367 0.155875 0.664242
2027 1 0.241347 0.138099 0.702705
1892 1 0.096303 0.114068 0.709618
1027 1 0.17569 0.097877 0.687292
1503 1 0.0495369 0.104947 0.792984
1521 1 0.121722 0.0806725 0.821631
434 1 0.157282 0.118844 0.764117
1359 1 0.190011 0.0332288 0.777371
830 1 0.0871193 0.0390795 0.75719
1111 1 0.0100028 0.038469 0.77568
201 1 0.0391697 0.0589354 0.697524
1360 1 0.135609 0.000344773 0.822841
734 1 0.231645 0.108381 0.778937
840 1 0.245217 0.0586793 0.711183
956 1 0.0984326 0.163786 0.788451
1059 1 0.0081789 0.133961 0.968516
1185 1 0.146345 0.0365023 0.973437
360 1 0.129809 0.0442454 0.893268
946 1 0.0251723 0.10706 0.890435
1687 1 0.196789 0.0779868 0.925799
874 1 0.0254744 0.0587891 0.960216
875 1 0.205234 0.022061 0.86026
345 1 0.0877971 0.0913231 0.936811
52 1 0.158883 0.139425 0.945454
1967 1 0.102798 0.141589 0.877593
1252 1 0.0519586 0.0270471 0.842094
1342 1 0.19405 0.101964 0.850296
1705 1 0.240251 0.145613 0.941324
278 1 0.244645 0.0426543 0.995168
32 1 0.0935957 0.311918 0.108823
501 1 0.163076 0.174713 0.0538706
1053 1 0.0916328 0.212135 0.123273
57 1 0.176393 0.308875 0.140292
545 1 0.0884465 0.215126 0.0406278
164 1 0.0777212 0.312037 0.0282622
1350 1 0.011047 0.293062 0.110387
1964 1 0.218658 0.213462 0.131562
1777 1 0.22024 0.232244 0.0519296
582 1 0.153352 0.251299 0.0933919
1700 1 0.0183923 0.217529 0.0748889
1384 1 0.229496 0.308232 0.0765714
961 1 0.196934 0.296412 0.000416254
1192 1 0.0235635 0.288416 0.25235
2029 1 0.115497 0.333696 0.182128
1375 1 0.238819 0.315918 0.301263
925 1 0.146445 0.174055 0.170358
1736 1 0.0103322 0.234721 0.180572
1423 1 0.128195 0.20283 0.23611
1627 1 0.178161 0.246148 0.189104
740 1 0.162617 0.26455 0.296505
1537 1 0.103449 0.305671 0.258061
1179 1 0.0882312 0.258153 0.189136
5 1 0.0403411 0.212947 0.258021
123 1 0.195225 0.310276 0.232228
1138 1 0.199191 0.182342 0.30779
408 1 0.21147 0.171619 0.22526
496 1 0.0811986 0.171442 0.320635
1533 1 0.0656896 0.253369 0.328457
1482 1 0.0304743 0.318608 0.184429
199 1 0.118178 0.317395 0.337905
1504 1 0.247447 0.224892 0.451408
1953 1 0.0217488 0.284756 0.395074
753 1 0.017551 0.216113 0.451669
465 1 0.0945156 0.271112 0.416446
33 1 0.237032 0.311631 0.473298
817 1 0.148051 0.330747 0.441646
239 1 0.0328263 0.305553 0.468118
336 1 0.184791 0.28524 0.368783
1561 1 0.134685 0.220473 0.371066
252 1 0.173184 0.246497 0.458828
1083 1 0.0640611 0.177042 0.395865
225 1 0.228671 0.212962 0.3757
1612 1 0.106401 0.291706 0.498781
1584 1 0.102666 0.205949 0.486487
295 1 0.245543 0.332059 0.385623
1308 1 0.2223 0.31821 0.660125
1354 1 0.239223 0.249476 0.621975
924 1 0.0854475 0.251794 0.588138
105 1 0.0203506 0.288738 0.616154
2028 1 0.163021 0.284401 0.615066
175 1 0.0403995 0.249986 0.51942
1978 1 0.161761 0.25191 0.541662
1197 1 0.0525848 0.326598 0.553018
1452 1 0.23947 0.285638 0.549144
1835 1 0.022582 0.202425 0.596331
659 1 0.223369 0.20524 0.548124
1021 1 0.132788 0.192068 0.594782
1820 1 0.20291 0.173006 0.638094
560 1 0.176476 0.33229 0.516999
1433 1 0.162271 0.18075 0.713235
934 1 0.181142 0.281157 0.757083
1437 1 0.0510439 0.300582 0.708599
194 1 0.169994 0.211458 0.793996
411 1 0.0249489 0.181402 0.831259
233 1 0.0931952 0.239345 0.750652
2000 1 0.123638 0.301251 0.681606
1432 1 0.00609225 0.226277 0.676931
1549 1 0.0270651 0.179043 0.75373
1559 1 0.0211375 0.259047 0.814229
603 1 0.242764 0.240578 0.784788
1913 1 0.0869322 0.30676 0.811522
1444 1 0.182585 0.251309 0.681703
1412 1 0.11189 0.216562 0.668431
686 1 0.0888901 0.172335 0.970703
784 1 0.127303 0.260038 0.983761
864 1 0.0989511 0.27617 0.903992
1086 1 0.0184859 0.214706 0.996239
648 1 0.129926 0.204013 0.911093
241 1 0.18605 0.268914 0.929627
312 1 0.0948842 0.224472 0.837139
1441 1 0.190301 0.20893 0.982034
307 1 0.0453717 0.305957 0.951295
311 1 0.0480192 0.193809 0.908002
365 1 0.215614 0.183541 0.856111
836 1 0.181418 0.268448 0.849643
837 1 0.0913098 0.460221 0.11468
796 1 0.0138272 0.449263 0.117125
1084 1 0.0972545 0.477114 0.0178897
1468 1 0.215663 0.403683 0.0625152
1305 1 0.103707 0.405511 0.0549107
842 1 0.160618 0.348887 0.0590546
1529 1 0.167983 0.46411 0.0517842
1317 1 0.21046 0.381084 0.162475
136 1 0.135123 0.384305 0.124008
1802 1 0.0380753 0.369454 0.0742911
1979 1 0.163547 0.465868 0.150741
1655 1 0.0232747 0.436526 0.0301453
1782 1 0.0527599 0.394031 0.159085
1122 1 0.00140527 0.349061 0.00616784
717 1 0.235159 0.49477 0.0701286
1458 1 0.054733 0.444271 0.27753
122 1 0.0194966 0.449228 0.20543
1665 1 0.1483 0.395841 0.206549
1514 1 0.136001 0.451716 0.270466
920 1 0.244375 0.470924 0.328883
1244 1 0.10244 0.459794 0.200053
869 1 0.225675 0.484999 0.226646
348 1 0.0799127 0.378163 0.23665
316 1 0.0446548 0.354806 0.316457
1068 1 0.213574 0.410973 0.254531
297 1 0.160545 0.358208 0.287311
911 1 0.00126896 0.362741 0.242275
969 1 0.224197 0.394506 0.330693
853 1 0.0794821 0.364646 0.390952
667 1 0.196521 0.441774 0.391653
427 1 0.204054 0.385199 0.455734
1790 1 0.171635 0.363916 0.37712
985 1 0.20178 0.480138 0.466034
1041 1 0.0835301 0.366047 0.488272
958 1 0.100201 0.485446 0.390921
1285 1 0.12137 0.417953 0.428898
1748 1 0.0304157 0.448825 0.442782
20 1 0.168762 0.500139 0.340194
630 1 0.0406382 0.436819 0.36263
80 1 0.111938 0.409784 0.338164
212 1 0.00487718 0.370947 0.402362
1902 1 0.0832585 0.441204 0.510308
1500 1 0.051808 0.400903 0.582593
155 1 0.1713 0.447843 0.656941
1903 1 0.238085 0.413693 0.520914
219 1 0.182374 0.489191 0.545156
802 1 0.161997 0.36541 0.659957
613 1 0.124992 0.438967 0.581203
1137 1 0.204921 0.364587 0.591777
1675 1 0.0504773 0.477309 0.610418
605 1 0.125796 0.350998 0.575891
1499 1 0.154819 0.406173 0.513177
819 1 0.235461 0.453596 0.606526
1409 1 0.0643876 0.351316 0.646072
696 1 0.081492 0.425734 0.656226
3 1 0.00747531 0.436018 0.532523
1960 1 0.146408 0.410137 0.827218
1704 1 0.0816006 0.440806 0.736948
1599 1 0.20753 0.488207 0.75374
775 1 0.0718747 0.389187 0.797799
1713 1 0.164396 0.424419 0.737046
1052 1 0.0510028 0.495351 0.810951
1077 1 0.21431 0.358376 0.727721
1935 1 0.132597 0.346256 0.752075
602 1 0.212428 0.349097 0.813246
1864 1 0.240678 0.425616 0.774593
718 1 0.135413 0.4822 0.785769
578 1 0.00279504 0.369901 0.739187
1233 1 0.248544 0.471734 0.688045
452 1 0.221539 0.338922 0.903354
879 1 0.0880297 0.463471 0.868578
1644 1 0.187918 0.409824 0.910362
1491 1 0.137642 0.338456 0.863139
1330 1 0.0575217 0.358334 0.866826
1579 1 0.109729 0.403409 0.91521
366 1 0.0140684 0.440044 0.884757
1231 1 0.246814 0.40997 0.853585
1226 1 0.147723 0.40317 0.995331
1471 1 0.0751585 0.376938 0.983273
301 1 0.0596445 0.469867 0.947255
249 1 0.213432 0.446253 0.988183
196 1 0.181135 0.482605 0.846598
435 1 0.0162728 0.377321 0.935114
414 1 0.149764 0.334989 0.947287
1400 1 0.246431 0.484352 0.890744
1971 1 0.248581 0.35484 0.982478
1013 1 0.244145 0.564878 0.0362373
646 1 0.124364 0.610922 0.0566746
1103 1 0.0287601 0.51452 0.0583514
1944 1 0.0460027 0.608878 0.0876041
945 1 0.159928 0.544322 0.0264501
1613 1 0.0267588 0.593712 0.0151471
1026 1 0.211936 0.633057 0.0640411
1929 1 0.0597786 0.51811 0.158872
1725 1 0.181041 0.552376 0.110649
4 1 0.097599 0.535335 0.0861365
1890 1 0.165653 0.632694 0.137015
606 1 0.247628 0.631139 0.148149
1234 1 0.193311 0.637681 0.214396
497 1 0.113961 0.612987 0.242812
1630 1 0.165049 0.654255 0.293599
1061 1 0.0666619 0.516332 0.252487
1822 1 0.0360375 0.594151 0.209357
1455 1 0.216984 0.565716 0.199261
1650 1 0.0501312 0.590863 0.298733
1319 1 0.169971 0.531987 0.251196
373 1 0.0211944 0.648971 0.260372
650 1 0.130022 0.552388 0.187661
2025 1 0.241001 0.626683 0.273535
1621 1 0.122046 0.555842 0.310584
1401 1 0.0553401 0.515779 0.331689
1280 1 0.220779 0.56306 0.311077
563 1 0.0832187 0.630918 0.166501
793 1 0.125305 0.617019 0.466426
1161 1 0.031593 0.594925 0.381469
2047 1 0.179984 0.591975 0.368092
1753 1 0.0125063 0.661984 0.346146
1333 1 0.199883 0.59405 0.447878
232 1 0.0598185 0.577285 0.462404
418 1 0.100797 0.564118 0.394932
1708 1 0.166871 0.524626 0.411386
1701 1 0.000980318 0.64697 0.429977
1346 1 0.243826 0.524691 0.391012
237 1 0.0246642 0.51462 0.402795
1849 1 0.124167 0.50288 0.474552
1056 1 0.103166 0.633082 0.336312
1473 1 0.081132 0.661966 0.410118
863 1 0.160499 0.56067 0.51182
473 1 0.0676802 0.569963 0.650841
1793 1 0.0965859 0.600349 0.536464
291 1 0.10619 0.51261 0.550465
349 1 0.0329356 0.587112 0.58203
818 1 0.238495 0.539631 0.500944
375 1 0.216179 0.615803 0.535845
1656 1 0.161299 0.579678 0.590555
1039 1 0.220963 0.652321 0.606441
1175 1 0.154024 0.654601 0.565308
149 1 0.206858 0.524748 0.648466
1696 1 0.0271105 0.63121 0.507454
231 1 0.0697549 0.656204 0.619594
1977 1 0.236763 0.542835 0.578446
673 1 0.128259 0.520496 0.637418
493 1 0.0341423 0.501396 0.500675
1403 1 0.170766 0.550099 0.78367
668 1 0.190562 0.622044 0.758146
1772 1 0.0644627 0.630367 0.7075
1135 1 0.203479 0.617518 0.669947
1085 1 0.226845 0.557154 0.719237
1615 1 0.131726 0.577545 0.690596
1134 1 0.0184564 0.634558 0.774417
10 1 0.113835 0.622046 0.766005
253 1 0.0580586 0.566538 0.772698
657 1 0.0542414 0.511871 0.711363
1519 1 0.00334119 0.576166 0.712398
1046 1 0.2405 0.589749 0.80231
1040 1 0.142094 0.500554 0.710602
1300 1 0.00450246 0.534376 0.947966
1303 1 0.1807 0.6149 0.988496
1899 1 0.220308 0.529096 0.969092
240 1 0.205451 0.559024 0.877161
1374 1 0.0586088 0.556841 0.894804
897 1 0.150485 0.588719 0.920374
902 1 0.166817 0.625702 0.839913
572 1 0.0683104 0.649075 0.845451
978 1 0.145694 0.499556 0.922412
635 1 0.0235779 0.614406 0.940819
66 1 0.0988848 0.544905 0.975942
470 1 0.0964246 0.646562 0.916212
860 1 0.117555 0.532772 0.843187
1905 1 0.242618 0.603389 0.938599
1322 1 0.0912591 0.62025 0.985792
1735 1 0.00399147 0.562537 0.840697
665 1 0.0801801 0.756826 0.0816284
327 1 0.234359 0.822424 0.15288
1740 1 0.109536 0.695209 0.132353
565 1 0.0324296 0.677938 0.122957
725 1 0.111041 0.791405 0.0174028
2001 1 0.177343 0.742178 0.0272906
1271 1 0.130137 0.808251 0.108908
589 1 0.159158 0.686319 0.0777626
1639 1 0.191936 0.760327 0.104113
683 1 0.077826 0.771239 0.161142
1223 1 0.0863424 0.680177 0.044641
713 1 0.0227241 0.820431 0.133475
544 1 0.205874 0.697922 0.160996
553 1 0.00495846 0.690646 0.0269677
1692 1 0.20446 0.83166 0.0634108
1431 1 0.0232699 0.785259 0.224724
816 1 0.169341 0.737199 0.294925
115 1 0.13044 0.786491 0.245329
1531 1 0.0675984 0.698153 0.304566
1921 1 0.152833 0.751425 0.182836
1019 1 0.225063 0.69946 0.253258
1034 1 0.0493602 0.695702 0.203829
1032 1 0.124992 0.689713 0.230925
720 1 0.204518 0.805799 0.265382
1875 1 0.144687 0.803135 0.322557
1664 1 0.234711 0.761344 0.207316
1498 1 0.0603383 0.776949 0.297495
1296 1 0.243304 0.668738 0.442389
940 1 0.246667 0.823384 0.352818
655 1 0.0242161 0.797106 0.428966
132 1 0.059908 0.728516 0.462475
1178 1 0.194122 0.761762 0.37609
1164 1 0.126818 0.714037 0.373545
472 1 0.194036 0.682354 0.3612
461 1 0.158363 0.680009 0.435915
1833 1 0.0478468 0.727216 0.377699
900 1 0.0995231 0.795021 0.385058
679 1 0.212384 0.755836 0.456402
358 1 0.137678 0.758229 0.465277
86 1 0.239453 0.827929 0.433233
15 1 0.00591024 0.800915 0.350212
1215 1 0.153487 0.797566 0.609342
596 1 0.150614 0.685895 0.648308
789 1 0.204788 0.734335 0.605647
739 1 0.191289 0.79471 0.544087
1023 1 0.0445878 0.701038 0.559061
663 1 0.240208 0.795752 0.636549
2020 1 0.0772625 0.788269 0.516554
628 1 0.00859682 0.708429 0.632238
733 1 0.122463 0.728906 0.558039
1982 1 0.0693289 0.757416 0.621139
14 1 0.180039 0.704923 0.505405
1907 1 0.0165526 0.833107 0.555811
1453 1 0.097308 0.676353 0.507157
1 1 0.0423718 0.720871 0.768431
1062 1 0.0791211 0.809476 0.823161
1828 1 0.0191666 0.766439 0.704304
822 1 0.143385 0.693768 0.728993
167 1 0.225768 0.681378 0.794958
409 1 0.131773 0.786999 0.687009
1334 1 0.165358 0.758914 0.786033
317 1 0.077707 0.795629 0.74838
707 1 0.00436393 0.818586 0.768323
1969 1 0.204131 0.814016 0.740759
1167 1 0.0778295 0.716735 0.684513
527 1 0.230293 0.799229 0.814701
1105 1 0.126927 0.703685 0.823527
777 1 0.227863 0.680182 0.716564
928 1 0.197565 0.748282 0.684985
615 1 0.246478 0.746777 0.757374
1715 1 0.000548123 0.691512 0.707951
1941 1 0.143249 0.833941 0.783721
1751 1 0.13184 0.692741 0.982206
880 1 0.127308 0.797678 0.938447
170 1 0.152113 0.791591 0.860032
117 1 0.112136 0.729347 0.895942
1216 1 0.0545472 0.784501 0.904658
1168 1 0.186795 0.742882 0.940828
1115 1 0.222544 0.679026 0.974111
1313 1 0.190428 0.808405 0.988329
1759 1 0.0275648 0.699323 0.899862
1580 1 0.0571224 0.737772 0.843264
1338 1 0.234635 0.827655 0.89145
866 1 0.071608 0.738058 0.967926
1766 1 0.197594 0.730499 0.856213
1604 1 0.172915 0.670614 0.906911
774 1 0.101039 0.975183 0.0254709
1989 1 0.135482 0.928141 0.0854338
1479 1 0.0902328 0.852798 0.0565387
1407 1 0.0533904 0.907249 0.0138947
1572 1 0.185449 0.89918 0.0308661
386 1 0.198769 0.891748 0.124136
1513 1 0.0878792 0.87108 0.137072
124 1 0.150291 0.993122 0.144292
1109 1 0.029827 0.913781 0.0971948
727 1 0.209081 0.970716 0.0932132
259 1 0.0802914 0.966047 0.138946
322 1 0.230398 0.961349 0.00523495
841 1 0.0110141 0.83769 0.0568363
1530 1 0.0381001 0.993256 0.0774847
1714 1 0.144446 0.871332 0.279466
2012 1 0.0133819 0.853478 0.25919
405 1 0.169014 0.942129 0.263762
34 1 0.139608 0.985062 0.320957
1205 1 0.0231543 0.887439 0.185667
755 1 0.0720253 0.847232 0.319109
746 1 0.0682777 0.90739 0.26105
96 1 0.0632434 0.955726 0.319956
8 1 0.138775 0.917507 0.173286
1153 1 0.114349 0.980124 0.217256
1586 1 0.20774 0.891944 0.311992
598 1 0.0853809 0.849356 0.210679
1268 1 0.204872 0.884527 0.224913
1162 1 0.0389768 0.968855 0.218539
498 1 0.212249 0.959366 0.174887
1763 1 0.00619933 0.893699 0.322968
26 1 0.159437 0.842558 0.177763
207 1 0.176901 0.979418 0.468997
376 1 0.0793178 0.954171 0.415211
139 1 0.0298223 0.86874 0.46756
592 1 0.169389 0.908499 0.410591
1096 1 0.126553 0.912525 0.494752
282 1 0.169753 0.834629 0.39288
354 1 0.145863 0.986469 0.398496
467 1 0.0501401 0.864984 0.391578
573 1 0.0122837 0.968832 0.462173
1045 1 0.219822 0.958704 0.377398
639 1 0.110882 0.903614 0.3562
889 1 0.10682 0.849822 0.446608
504 1 0.176575 0.855508 0.472678
557 1 0.100144 0.992187 0.488701
413 1 0.233988 0.909216 0.454215
275 1 0.0857344 0.838283 0.606681
320 1 0.125202 0.986142 0.5797
1228 1 0.0466446 0.951903 0.611315
1505 1 0.145629 0.906106 0.595092
1239 1 0.138156 0.846029 0.543309
1543 1 0.201413 0.96101 0.600437
255 1 0.203297 0.926975 0.532384
804 1 0.210534 0.856709 0.595785
1886 1 0.0284798 0.999268 0.542357
1060 1 0.0776323 0.897373 0.555446
801 1 0.00296578 0.923246 0.531404
2016 1 0.022506 0.878241 0.625246
1286 1 0.21129 0.914553 0.661047
1203 1 0.141762 0.860709 0.661649
518 1 0.247323 0.859583 0.518292
1243 1 0.135012 0.912367 0.821256
1934 1 0.0696074 0.879651 0.78632
1785 1 0.0579183 0.834533 0.681029
379 1 0.0636021 0.965362 0.774111
1091 1 0.0175144 0.896477 0.724416
513 1 0.147593 0.975725 0.746478
1985 1 0.236349 0.976446 0.738835
1119 1 0.200564 0.866951 0.825633
1009 1 0.132096 0.89134 0.735983
747 1 0.20079 0.954605 0.809656
263 1 0.210454 0.898805 0.736076
1548 1 0.0902486 0.918093 0.670488
113 1 0.251843 0.853693 0.685602
476 1 0.068715 0.99024 0.694468
250 1 0.155251 0.967239 0.667512
737 1 0.0620313 0.999846 0.918151
392 1 0.118882 0.866085 0.97782
857 1 0.065108 0.951617 0.855978
1361 1 0.145289 0.941404 0.968877
1844 1 0.21135 0.927821 0.884242
1372 1 0.0243659 0.978883 0.995738
776 1 0.0386552 0.844266 0.964735
426 1 0.0597442 0.864331 0.875796
1142 1 0.229232 0.872144 0.952676
2045 1 0.134406 0.96174 0.894177
1340 1 0.0653107 0.919003 0.931878
306 1 0.144827 0.877616 0.893392
1651 1 0.438125 0.133579 0.0380711
192 1 0.494848 0.0196384 0.0631514
807 1 0.443663 0.152301 0.111666
521 1 0.453152 0.0211198 0.157838
1110 1 0.365815 0.133648 0.113285
1255 1 0.278584 0.147426 0.120323
607 1 0.394677 0.00830527 0.0239891
1157 1 0.435945 0.0651043 0.0888279
1195 1 0.371169 0.0291536 0.13266
213 1 0.361835 0.0804656 0.0541794
555 1 0.285971 0.0651956 0.107131
300 1 0.314235 0.160249 0.0495311
1605 1 0.320536 0.0150396 0.0103556
1133 1 0.488089 0.107641 0.159166
1657 1 0.460045 0.0535081 0.231088
91 1 0.359106 0.0435126 0.211023
1625 1 0.364508 0.145684 0.213237
1523 1 0.400978 0.0869174 0.268117
1749 1 0.396663 0.155344 0.308827
1553 1 0.476853 0.0392044 0.326241
458 1 0.456172 0.142541 0.221996
2034 1 0.28125 0.114244 0.242058
1454 1 0.310778 0.0268352 0.293123
1169 1 0.323126 0.136221 0.305633
931 1 0.482915 0.112094 0.29876
1392 1 0.262409 0.0356063 0.232395
907 1 0.316902 0.0917755 0.171215
1950 1 0.409632 0.095209 0.169569
973 1 0.387842 0.0293655 0.330258
783 1 0.253532 0.0569958 0.349718
609 1 0.459305 0.128343 0.44627
60 1 0.479124 0.0246762 0.468341
1273 1 0.408538 0.0604218 0.461499
1219 1 0.363722 0.119432 0.399286
998 1 0.280627 0.0949546 0.423565
580 1 0.475906 0.0652771 0.401619
1868 1 0.256211 0.147155 0.352296
1676 1 0.333213 0.100439 0.481537
1608 1 0.426827 0.0985483 0.351538
481 1 0.352531 0.0225728 0.411558
1240 1 0.49413 0.140662 0.37851
699 1 0.337528 0.0156402 0.494395
1017 1 0.265196 0.0591051 0.492799
186 1 0.2675 0.15831 0.499237
797 1 0.278628 0.00305723 0.436431
1424 1 0.274268 0.163487 0.587086
957 1 0.30919 0.130483 0.660352
1773 1 0.262333 0.0146856 0.582755
1257 1 0.381169 0.0677362 0.544462
2006 1 0.436301 0.0592025 0.612915
396 1 0.470763 0.127954 0.59506
1129 1 0.329399 0.0515364 0.62099
878 1 0.372839 0.120502 0.610346
1837 1 0.312113 0.0993843 0.559236
1065 1 0.470631 0.0765679 0.529571
205 1 0.427296 0.15329 0.659862
1136 1 0.257925 0.0838706 0.621595
1382 1 0.473181 0.00528418 0.564053
276 1 0.374718 0.0890884 0.683611
649 1 0.485783 0.093864 0.790829
1792 1 0.419888 0.0285426 0.710913
1872 1 0.408564 0.112251 0.77449
1996 1 0.334575 0.0206612 0.714815
491 1 0.335297 0.136021 0.798088
714 1 0.460912 0.0901663 0.691449
157 1 0.363637 0.16386 0.707796
1938 1 0.461956 0.159247 0.734319
303 1 0.356668 0.0520086 0.791572
353 1 0.311293 0.102341 0.732569
287 1 0.266553 0.0534285 0.827179
642 1 0.467818 0.00477459 0.772372
1797 1 0.297674 0.00200364 0.777341
85 1 0.321483 0.124957 0.925584
741 1 0.292273 0.0532146 0.929118
313 1 0.423484 0.00682955 0.903421
114 1 0.456924 0.0773204 0.919085
158 1 0.478673 0.159437 0.918607
1102 1 0.376811 0.0586343 0.966577
248 1 0.336291 0.0760842 0.869161
258 1 0.299977 0.0960611 0.99962
447 1 0.403726 0.131198 0.960027
1149 1 0.466067 0.0230613 0.977307
534 1 0.276372 0.129267 0.847991
1781 1 0.422462 0.105357 0.850989
285 1 0.495306 0.101769 0.995456
1125 1 0.362802 0.00456139 0.852587
1281 1 0.434917 0.0338582 0.833163
1743 1 0.403357 0.266252 0.126236
917 1 0.388901 0.26904 0.0394771
140 1 0.451499 0.227105 0.0770594
524 1 0.384557 0.186472 0.0591906
1483 1 0.460619 0.319503 0.119994
1666 1 0.341584 0.304289 0.160964
1731 1 0.341826 0.2021 0.13965
133 1 0.287286 0.238261 0.097233
937 1 0.302232 0.286425 0.0385209
1442 1 0.472384 0.248005 0.161204
267 1 0.448037 0.320756 0.044583
1588 1 0.259708 0.29841 0.152052
583 1 0.328924 0.250247 0.216716
1972 1 0.436287 0.210354 0.263329
506 1 0.282694 0.190464 0.268116
1071 1 0.280007 0.243712 0.323686
1265 1 0.405283 0.286025 0.209238
1884 1 0.474721 0.319012 0.194309
2042 1 0.444375 0.277311 0.302684
947 1 0.412155 0.206308 0.184956
540 1 0.365702 0.224356 0.284401
1590 1 0.284234 0.18512 0.18997
588 1 0.380158 0.318835 0.273685
1742 1 0.251998 0.260211 0.242214
1282 1 0.306904 0.28585 0.397617
475 1 0.471687 0.202744 0.338979
1107 1 0.487305 0.329586 0.350156
148 1 0.436641 0.268287 0.380989
675 1 0.417835 0.181499 0.400378
84 1 0.38693 0.313937 0.421543
323 1 0.324077 0.309766 0.468861
29 1 0.43462 0.230566 0.467886
1538 1 0.36358 0.23072 0.422028
1256 1 0.431948 0.306649 0.488308
1411 1 0.36635 0.283355 0.344694
1144 1 0.338814 0.196416 0.35353
933 1 0.306062 0.170266 0.425312
861 1 0.496199 0.202371 0.422196
526 1 0.376053 0.168137 0.465078
766 1 0.372711 0.24153 0.527206
604 1 0.362052 0.195002 0.636831
370 1 0.314391 0.22922 0.588815
1262 1 0.331067 0.268114 0.654801
1658 1 0.39878 0.254795 0.603737
618 1 0.422376 0.183153 0.563353
171 1 0.472104 0.236419 0.545975
1098 1 0.46792 0.213058 0.627296
1430 1 0.482232 0.292917 0.631487
1667 1 0.441964 0.308102 0.566366
680 1 0.405337 0.319084 0.652354
1012 1 0.295533 0.23118 0.514986
983 1 0.368018 0.329945 0.533145
1830 1 0.48201 0.172787 0.507033
432 1 0.348334 0.167514 0.544747
46 1 0.401288 0.245554 0.686543
1048 1 0.337054 0.266814 0.736662
1774 1 0.469261 0.233708 0.793418
1900 1 0.260865 0.272634 0.708216
1310 1 0.29774 0.189792 0.750167
1174 1 0.449154 0.320926 0.813565
242 1 0.397557 0.206331 0.760675
1447 1 0.280559 0.320728 0.777193
1732 1 0.396677 0.252428 0.82859
116 1 0.429589 0.309366 0.733113
968 1 0.480363 0.241641 0.707894
1337 1 0.354188 0.316421 0.804192
183 1 0.322656 0.229086 0.810404
523 1 0.286113 0.201374 0.668035
1557 1 0.286535 0.191173 0.889179
769 1 0.335395 0.253838 0.963663
1954 1 0.44864 0.204886 0.98854
597 1 0.398547 0.213061 0.926952
1955 1 0.443047 0.180602 0.849817
548 1 0.444746 0.286917 0.966004
1780 1 0.344356 0.25853 0.886246
901 1 0.370748 0.167064 0.869106
691 1 0.454036 0.260779 0.883695
1706 1 0.277937 0.20695 0.996184
1035 1 0.259021 0.280697 0.853141
1356 1 0.353257 0.177922 0.984622
1389 1 0.261419 0.25105 0.929812
716 1 0.386879 0.326469 0.875776
197 1 0.357002 0.325624 0.993567
2013 1 0.265905 0.435284 0.113429
1232 1 0.349529 0.440306 0.152342
1755 1 0.374056 0.333253 0.0905316
1075 1 0.410346 0.418397 0.108824
1204 1 0.476392 0.39375 0.0694555
1328 1 0.341133 0.409514 0.0788094
975 1 0.400068 0.469775 0.0502131
95 1 0.408105 0.38834 0.0257331
1678 1 0.298803 0.368655 0.130826
825 1 0.285195 0.482123 0.00590377
1092 1 0.455178 0.453291 -8.40966e-05
543 1 0.285489 0.360557 0.0529513
40 1 0.457988 0.476496 0.163057
180 1 0.310809 0.406704 0.00359062
550 1 0.279214 0.432649 0.191034
918 1 0.341681 0.467545 0.255688
992 1 0.309402 0.34453 0.304617
1565 1 0.402009 0.432442 0.212887
1379 1 0.367852 0.403987 0.310428
100 1 0.412654 0.491737 0.28172
1861 1 0.463617 0.395807 0.182221
1069 1 0.43892 0.366771 0.2494
1885 1 0.287569 0.417161 0.281517
1987 1 0.485343 0.451935 0.231914
631 1 0.334693 0.38836 0.228401
898 1 0.49576 0.498723 0.297314
189 1 0.446035 0.420007 0.312722
1610 1 0.270836 0.342176 0.21687
1260 1 0.389639 0.368265 0.170213
1988 1 0.282445 0.373634 0.440131
743 1 0.404077 0.468913 0.356419
1117 1 0.365811 0.373707 0.466325
1866 1 0.280903 0.482266 0.446964
1814 1 0.343074 0.431773 0.418822
293 1 0.418729 0.39264 0.406654
1878 1 0.480286 0.344296 0.426574
1028 1 0.483176 0.424388 0.475446
1365 1 0.33722 0.36221 0.376032
1038 1 0.465333 0.461014 0.403915
1043 1 0.411816 0.345682 0.341892
234 1 0.409089 0.447297 0.465192
444 1 0.326404 0.439354 0.498602
805 1 0.274645 0.427771 0.38382
1769 1 0.32178 0.485531 0.334566
390 1 0.378398 0.428992 0.563764
903 1 0.357321 0.377301 0.618111
1182 1 0.434006 0.377662 0.598366
1811 1 0.279147 0.483227 0.549347
762 1 0.295304 0.414452 0.58048
24 1 0.437493 0.477124 0.533271
1768 1 0.423019 0.381231 0.517969
1449 1 0.462929 0.459261 0.612841
1946 1 0.489892 0.412198 0.554492
1631 1 0.284181 0.345712 0.527299
1983 1 0.385039 0.476089 0.632224
730 1 0.288051 0.335447 0.608628
460 1 0.310571 0.483248 0.743474
891 1 0.472211 0.354049 0.686457
745 1 0.467092 0.40012 0.813127
528 1 0.389492 0.387136 0.798096
1079 1 0.4182 0.410251 0.667642
378 1 0.381723 0.450161 0.750618
469 1 0.378261 0.363676 0.719939
272 1 0.312529 0.43061 0.814093
1887 1 0.311085 0.398708 0.743083
108 1 0.462553 0.479293 0.807348
1108 1 0.456777 0.427578 0.735707
362 1 0.433354 0.494216 0.692132
288 1 0.315878 0.336223 0.686477
502 1 0.36605 0.491977 0.815554
1881 1 0.25147 0.390681 0.66915
1697 1 0.319528 0.440566 0.671397
457 1 0.490633 0.352355 0.972634
1456 1 0.408404 0.352017 0.942956
2023 1 0.349276 0.477175 0.894269
1155 1 0.298599 0.334222 0.924093
1050 1 0.41464 0.428173 0.862382
625 1 0.467303 0.355865 0.884744
687 1 0.46313 0.419401 0.930252
1194 1 0.434316 0.492392 0.918812
785 1 0.289612 0.434422 0.931407
440 1 0.303071 0.354188 0.850759
1145 1 0.349839 0.39611 0.897674
888 1 0.380841 0.424256 0.962847
17 1 0.351269 0.622938 0.0488804
1393 1 0.335886 0.556935 0.152592
1128 1 0.463391 0.506627 0.0945662
185 1 0.311825 0.50658 0.0944176
715 1 0.452396 0.54262 0.020865
1643 1 0.290853 0.587123 0.100903
1366 1 0.372135 0.543646 0.0483158
1733 1 0.272797 0.638355 0.0173235
1301 1 0.435207 0.614165 0.0535664
1870 1 0.411301 0.589958 0.119942
1564 1 0.251239 0.528912 0.143206
1808 1 0.387925 0.508504 0.11687
847 1 0.392133 0.629766 0.278776
1123 1 0.46647 0.647478 0.250937
1801 1 0.386696 0.514705 0.194605
965 1 0.301446 0.507703 0.201562
203 1 0.386903 0.601178 0.197905
1596 1 0.358872 0.555616 0.260014
1863 1 0.450377 0.590749 0.307998
1974 1 0.316372 0.625856 0.286139
820 1 0.462294 0.602813 0.174551
516 1 0.279484 0.524212 0.272872
305 1 0.466236 0.537288 0.236012
1904 1 0.292423 0.598759 0.207536
1760 1 0.369309 0.616066 0.35178
217 1 0.461626 0.53124 0.365752
1436 1 0.422786 0.52337 0.462612
35 1 0.262349 0.643164 0.349154
754 1 0.338768 0.521939 0.406052
266 1 0.406655 0.572484 0.404056
893 1 0.276526 0.586438 0.432654
338 1 0.34116 0.521768 0.488895
711 1 0.349937 0.600491 0.473634
919 1 0.477256 0.621035 0.392189
600 1 0.450083 0.607693 0.471718
1855 1 0.403591 0.657647 0.417201
30 1 0.321105 0.659782 0.406761
1558 1 0.295105 0.568982 0.341521
49 1 0.382857 0.541047 0.334196
1597 1 0.267663 0.585069 0.640395
910 1 0.303192 0.571126 0.54664
78 1 0.305424 0.507891 0.629355
1018 1 0.35682 0.518145 0.572247
389 1 0.409451 0.628142 0.615539
1919 1 0.384334 0.591786 0.540888
436 1 0.343113 0.58231 0.62038
619 1 0.437216 0.649371 0.542063
395 1 0.477492 0.548974 0.531413
1120 1 0.486009 0.621644 0.614547
2002 1 0.43177 0.544943 0.601445
246 1 0.2999 0.642918 0.594665
1279 1 0.284469 0.63795 0.51177
1576 1 0.375294 0.636117 0.758757
319 1 0.440621 0.631102 0.693281
82 1 0.266568 0.507001 0.806674
1723 1 0.426193 0.630502 0.821599
1578 1 0.387479 0.566958 0.683068
1585 1 0.308551 0.662914 0.795452
340 1 0.320767 0.564604 0.784214
750 1 0.395009 0.528319 0.754625
1645 1 0.459438 0.563644 0.787433
1990 1 0.274119 0.617114 0.734679
1294 1 0.310284 0.555412 0.703902
684 1 0.335234 0.6383 0.69004
1943 1 0.481766 0.559191 0.674093
1201 1 0.355096 0.609257 0.841776
810 1 0.494596 0.591002 0.854241
453 1 0.375833 0.55578 0.908978
1848 1 0.292844 0.530768 0.93722
584 1 0.320497 0.627522 0.941518
1686 1 0.453018 0.577545 0.924124
1857 1 0.315427 0.567756 1.00027
363 1 0.315172 0.54597 0.86139
886 1 0.38831 0.585056 0.987913
1020 1 0.365385 0.501288 0.975342
1626 1 0.39827 0.639783 0.920987
617 1 0.468077 0.626723 0.982578
381 1 0.424205 0.536564 0.852727
703 1 0.497077 0.510023 0.96526
429 1 0.281235 0.624907 0.867752
63 1 0.395219 0.686977 0.08312
1181 1 0.456614 0.692819 0.0394212
1689 1 0.377348 0.74056 0.161316
1247 1 0.449288 0.771105 0.0786497
344 1 0.39606 0.743212 0.0182046
622 1 0.295414 0.756433 0.153367
372 1 0.274327 0.781134 0.0636338
1156 1 0.348064 0.771766 0.09387
1104 1 0.432422 0.668994 0.14873
566 1 0.332173 0.780008 -0.000611175
505 1 0.315644 0.70309 0.0441487
1859 1 0.491692 0.830303 0.025139
1210 1 0.403148 0.819505 0.0391185
204 1 0.455872 0.751436 0.165192
1634 1 0.331209 0.664981 0.127586
1311 1 0.251866 0.709354 0.0930749
1037 1 0.454905 0.80144 0.271974
1534 1 0.434269 0.729398 0.236773
532 1 0.48067 0.721732 0.317362
1999 1 0.324403 0.701206 0.326021
1654 1 0.361941 0.776898 0.223133
499 1 0.391409 0.742163 0.300926
641 1 0.300851 0.738236 0.252567
1917 1 0.31703 0.794539 0.321194
1805 1 0.284488 0.68025 0.197611
1799 1 0.253571 0.746604 0.324883
2 1 0.412295 0.828593 0.193243
485 1 0.365581 0.683536 0.21357
672 1 0.37963 0.819015 0.28542
2015 1 0.335397 0.826476 0.168231
1860 1 0.342734 0.798005 0.395848
492 1 0.369683 0.722878 0.396701
1080 1 0.297652 0.779217 0.45733
270 1 0.416545 0.678967 0.341483
424 1 0.423044 0.790166 0.359622
633 1 0.413515 0.778365 0.436292
1958 1 0.285638 0.727621 0.393544