LAMMPS (15 Sep 2022)
ERROR on proc 1: Substitution for illegal variable configfile (src/input.cpp:650)
Last command: include ${configfile}
ERROR on proc 2: Substitution for illegal variable configfile (src/input.cpp:650)
Last command: include ${configfile}
ERROR on proc 3: Substitution for illegal variable configfile (src/input.cpp:650)
Last command: include ${configfile}
OMP_NUM_THREADS environment is not set. Defaulting to 1 thread. (src/comm.cpp:98)
  using 1 OpenMP thread(s) per MPI task
ERROR on proc 0: Substitution for illegal variable configfile (src/input.cpp:650)
Last command: include ${configfile}
--------------------------------------------------------------------------
MPI_ABORT was invoked on rank 2 in communicator MPI_COMM_WORLD
with errorcode 1.

NOTE: invoking MPI_ABORT causes Open MPI to kill all MPI processes.
You may or may not see output from other processes, depending on
exactly when Open MPI kills them.
--------------------------------------------------------------------------
[gr065.hpc.nyu.edu:4152772] 3 more processes have sent help message help-mpi-api.txt / mpi-abort
[gr065.hpc.nyu.edu:4152772] Set MCA parameter "orte_base_help_aggregate" to 0 to see all help / error messages
LAMMPS (15 Sep 2022)
OMP_NUM_THREADS environment is not set. Defaulting to 1 thread. (src/comm.cpp:98)
  using 1 OpenMP thread(s) per MPI task
ERROR on proc 0: Substitution for illegal variable configfile (src/input.cpp:650)
Last command: include ${configfile}
--------------------------------------------------------------------------
MPI_ABORT was invoked on rank 0 in communicator MPI_COMM_WORLD
with errorcode 1.

NOTE: invoking MPI_ABORT causes Open MPI to kill all MPI processes.
You may or may not see output from other processes, depending on
exactly when Open MPI kills them.
--------------------------------------------------------------------------
LAMMPS (15 Sep 2022)
OMP_NUM_THREADS environment is not set. Defaulting to 1 thread. (src/comm.cpp:98)
  using 1 OpenMP thread(s) per MPI task
ERROR on proc 1: Substitution for illegal variable configfile (src/input.cpp:650)
Last command: include ${configfile}
ERROR on proc 2: Substitution for illegal variable configfile (src/input.cpp:650)
Last command: include ${configfile}
ERROR on proc 0: Substitution for illegal variable configfile (src/input.cpp:650)
Last command: include ${configfile}
--------------------------------------------------------------------------
MPI_ABORT was invoked on rank 2 in communicator MPI_COMM_WORLD
with errorcode 1.

NOTE: invoking MPI_ABORT causes Open MPI to kill all MPI processes.
You may or may not see output from other processes, depending on
exactly when Open MPI kills them.
--------------------------------------------------------------------------
[gr065.hpc.nyu.edu:4152812] 2 more processes have sent help message help-mpi-api.txt / mpi-abort
[gr065.hpc.nyu.edu:4152812] Set MCA parameter "orte_base_help_aggregate" to 0 to see all help / error messages
LAMMPS (15 Sep 2022)
--------------------------------------------------------------------------
MPI_ABORT was invoked on rank 0 in communicator MPI_COMM_WORLD
with errorcode 1.

NOTE: invoking MPI_ABORT causes Open MPI to kill all MPI processes.
You may or may not see output from other processes, depending on
exactly when Open MPI kills them.
--------------------------------------------------------------------------
ERROR on proc 1: Substitution for illegal variable configfile (src/input.cpp:650)
Last command: include ${configfile}
ERROR on proc 2: Substitution for illegal variable configfile (src/input.cpp:650)
Last command: include ${configfile}
ERROR on proc 3: Substitution for illegal variable configfile (src/input.cpp:650)
Last command: include ${configfile}
OMP_NUM_THREADS environment is not set. Defaulting to 1 thread. (src/comm.cpp:98)
  using 1 OpenMP thread(s) per MPI task
ERROR on proc 0: Substitution for illegal variable configfile (src/input.cpp:650)
Last command: include ${configfile}
[gr065.hpc.nyu.edu:4152832] 3 more processes have sent help message help-mpi-api.txt / mpi-abort
[gr065.hpc.nyu.edu:4152832] Set MCA parameter "orte_base_help_aggregate" to 0 to see all help / error messages
LAMMPS (15 Sep 2022)
OMP_NUM_THREADS environment is not set. Defaulting to 1 thread. (src/comm.cpp:98)
  using 1 OpenMP thread(s) per MPI task
ERROR on proc 0: Substitution for illegal variable configfile (src/input.cpp:650)
Last command: include ${configfile}
ERROR on proc 1: Substitution for illegal variable configfile (src/input.cpp:650)
Last command: include ${configfile}
--------------------------------------------------------------------------
MPI_ABORT was invoked on rank 0 in communicator MPI_COMM_WORLD
with errorcode 1.

NOTE: invoking MPI_ABORT causes Open MPI to kill all MPI processes.
You may or may not see output from other processes, depending on
exactly when Open MPI kills them.
--------------------------------------------------------------------------
ERROR on proc 2: Substitution for illegal variable configfile (src/input.cpp:650)
Last command: include ${configfile}
ERROR on proc 3: Substitution for illegal variable configfile (src/input.cpp:650)
Last command: include ${configfile}
[gr065.hpc.nyu.edu:4152852] 3 more processes have sent help message help-mpi-api.txt / mpi-abort
[gr065.hpc.nyu.edu:4152852] Set MCA parameter "orte_base_help_aggregate" to 0 to see all help / error messages
LAMMPS (15 Sep 2022)
OMP_NUM_THREADS environment is not set. Defaulting to 1 thread. (src/comm.cpp:98)
  using 1 OpenMP thread(s) per MPI task
ERROR on proc 1: Substitution for illegal variable configfile (src/input.cpp:650)
Last command: include ${configfile}
ERROR on proc 2: Substitution for illegal variable configfile (src/input.cpp:650)
Last command: include ${configfile}
ERROR on proc 3: Substitution for illegal variable configfile (src/input.cpp:650)
Last command: include ${configfile}
ERROR on proc 0: Substitution for illegal variable configfile (src/input.cpp:650)
Last command: include ${configfile}
--------------------------------------------------------------------------
MPI_ABORT was invoked on rank 2 in communicator MPI_COMM_WORLD
with errorcode 1.

NOTE: invoking MPI_ABORT causes Open MPI to kill all MPI processes.
You may or may not see output from other processes, depending on
exactly when Open MPI kills them.
--------------------------------------------------------------------------
[gr065.hpc.nyu.edu:4152872] 3 more processes have sent help message help-mpi-api.txt / mpi-abort
[gr065.hpc.nyu.edu:4152872] Set MCA parameter "orte_base_help_aggregate" to 0 to see all help / error messages
LAMMPS (15 Sep 2022)
OMP_NUM_THREADS environment is not set. Defaulting to 1 thread. (src/comm.cpp:98)
  using 1 OpenMP thread(s) per MPI task
ERROR on proc 0: Substitution for illegal variable configfile (src/input.cpp:650)
Last command: include ${configfile}
--------------------------------------------------------------------------
MPI_ABORT was invoked on rank 0 in communicator MPI_COMM_WORLD
with errorcode 1.

NOTE: invoking MPI_ABORT causes Open MPI to kill all MPI processes.
You may or may not see output from other processes, depending on
exactly when Open MPI kills them.
--------------------------------------------------------------------------
ERROR on proc 2: Substitution for illegal variable configfile (src/input.cpp:650)
Last command: include ${configfile}
ERROR on proc 1: Substitution for illegal variable configfile (src/input.cpp:650)
Last command: include ${configfile}
ERROR on proc 3: Substitution for illegal variable configfile (src/input.cpp:650)
Last command: include ${configfile}
[gr065.hpc.nyu.edu:4152892] 3 more processes have sent help message help-mpi-api.txt / mpi-abort
[gr065.hpc.nyu.edu:4152892] Set MCA parameter "orte_base_help_aggregate" to 0 to see all help / error messages
LAMMPS (15 Sep 2022)
OMP_NUM_THREADS environment is not set. Defaulting to 1 thread. (src/comm.cpp:98)
  using 1 OpenMP thread(s) per MPI task
ERROR on proc 0: Substitution for illegal variable configfile (src/input.cpp:650)
Last command: include ${configfile}
--------------------------------------------------------------------------
MPI_ABORT was invoked on rank 0 in communicator MPI_COMM_WORLD
with errorcode 1.

NOTE: invoking MPI_ABORT causes Open MPI to kill all MPI processes.
You may or may not see output from other processes, depending on
exactly when Open MPI kills them.
--------------------------------------------------------------------------
ERROR on proc 1: Substitution for illegal variable configfile (src/input.cpp:650)
Last command: include ${configfile}
ERROR on proc 2: Substitution for illegal variable configfile (src/input.cpp:650)
Last command: include ${configfile}
[gr065.hpc.nyu.edu:4152912] 2 more processes have sent help message help-mpi-api.txt / mpi-abort
[gr065.hpc.nyu.edu:4152912] Set MCA parameter "orte_base_help_aggregate" to 0 to see all help / error messages
LAMMPS (15 Sep 2022)
OMP_NUM_THREADS environment is not set. Defaulting to 1 thread. (src/comm.cpp:98)
  using 1 OpenMP thread(s) per MPI task
ERROR on proc 1: Substitution for illegal variable configfile (src/input.cpp:650)
Last command: include ${configfile}
ERROR on proc 2: Substitution for illegal variable configfile (src/input.cpp:650)
Last command: include ${configfile}
ERROR on proc 3: Substitution for illegal variable configfile (src/input.cpp:650)
Last command: include ${configfile}
ERROR on proc 0: Substitution for illegal variable configfile (src/input.cpp:650)
Last command: include ${configfile}
--------------------------------------------------------------------------
MPI_ABORT was invoked on rank 1 in communicator MPI_COMM_WORLD
with errorcode 1.

NOTE: invoking MPI_ABORT causes Open MPI to kill all MPI processes.
You may or may not see output from other processes, depending on
exactly when Open MPI kills them.
--------------------------------------------------------------------------
[gr065.hpc.nyu.edu:4152932] 3 more processes have sent help message help-mpi-api.txt / mpi-abort
[gr065.hpc.nyu.edu:4152932] Set MCA parameter "orte_base_help_aggregate" to 0 to see all help / error messages
LAMMPS (15 Sep 2022)
OMP_NUM_THREADS environment is not set. Defaulting to 1 thread. (src/comm.cpp:98)
  using 1 OpenMP thread(s) per MPI task
ERROR on proc 0: Substitution for illegal variable configfile (src/input.cpp:650)
Last command: include ${configfile}
--------------------------------------------------------------------------
MPI_ABORT was invoked on rank 0 in communicator MPI_COMM_WORLD
with errorcode 1.

NOTE: invoking MPI_ABORT causes Open MPI to kill all MPI processes.
You may or may not see output from other processes, depending on
exactly when Open MPI kills them.
--------------------------------------------------------------------------
ERROR on proc 1: Substitution for illegal variable configfile (src/input.cpp:650)
Last command: include ${configfile}
ERROR on proc 2: Substitution for illegal variable configfile (src/input.cpp:650)
Last command: include ${configfile}
[gr065.hpc.nyu.edu:4152952] 2 more processes have sent help message help-mpi-api.txt / mpi-abort
[gr065.hpc.nyu.edu:4152952] Set MCA parameter "orte_base_help_aggregate" to 0 to see all help / error messages
