LAMMPS (15 Sep 2022)
OMP_NUM_THREADS environment is not set. Defaulting to 1 thread. (src/comm.cpp:98)
  using 1 OpenMP thread(s) per MPI task
Lattice spacing in x,y,z = 1.4938016 1.4938016 1.4938016
Created orthogonal box = (0 0 0) to (6.6943295 6.6943295 6.6943295)
  2 by 3 by 4 MPI processor grid
Created 365 atoms
  using lattice units in orthogonal box = (0 0 0) to (6.6943295 6.6943295 6.6943295)
  create_atoms CPU = 1.459 seconds
Setting atom values ...
  77 settings made for type
5 atoms in group extra
Deleted 5 atoms, new total = 360
288 atoms in group typea
72 atoms in group typeb
Minimizing initial structure
Generated 0 of 1 mixed pair_coeff terms from geometric mixing rule
Neighbor list info ...
  update: every = 1 steps, delay = 0 steps, check = yes
  max neighbors/atom: 2000, page size: 100000
  master list distance cutoff = 3
  ghost atom cutoff = 3
  binsize = 1.5, bins = 5 5 5
  1 neighbor lists, perpetual/occasional/extra = 1 0 0
  (1) pair lj/cut, perpetual
      attributes: half, newton on
      pair build: half/bin/atomonly/newton
      stencil: half/bin/3d
      bin: standard
Setting up Verlet run ...
  Unit style    : lj
  Current step  : 0
  Time step     : 0.001
Per MPI rank memory allocation (min/avg/max) = 4.08 | 4.087 | 4.089 Mbytes
   Step          Temp          E_pair         E_mol          TotEng         Press     
         0   0              31.865568      0              31.865568      202.29598    
      1000   16.799976      6.5516139      0              31.681578      100.0391     
      2000   16.509631      6.9853665      0              31.681023      101.68256    
      3000   16.776977      6.5853086      0              31.68087       100.06772    
      4000   16.909912      6.3850831      0              31.679493      99.049648    
      5000   17.807998      5.0419382      0              31.679735      92.918434    
      6000   17.371737      5.694403       0              31.679626      96.012176    
      7000   16.821023      6.5166925      0              31.67814       100.56042    
      8000   16.579075      6.8807467      0              31.680279      101.58897    
      9000   17.065576      6.1517678      0              31.679025      98.290703    
     10000   16.732018      6.6522112      0              31.680521      100.66048    
Loop time of 5372.5 on 24 procs for 10000 steps with 360 atoms

Performance: 160.819 tau/day, 1.861 timesteps/s, 670.079 atom-step/s
16.0% CPU use with 24 MPI tasks x 1 OpenMP threads

MPI task timing breakdown:
Section |  min time  |  avg time  |  max time  |%varavg| %total
---------------------------------------------------------------
Pair    | 0.0807     | 0.10943    | 0.12487    |   4.2 |  0.00
Neigh   | 0.021496   | 0.022963   | 0.024335   |   0.5 |  0.00
Comm    | 3830.2     | 4165.4     | 4378.2     | 231.8 | 77.53
Output  | 6.2783     | 6.7335     | 7.125      |   6.5 |  0.13
Modify  | 0.0067419  | 0.013919   | 0.02346    |   3.9 |  0.00
Other   |            | 1200       |            |       | 22.34

Nlocal:             15 ave          21 max          10 min
Histogram: 1 3 2 2 7 3 4 1 0 1
Nghost:        698.083 ave         715 max         678 min
Histogram: 2 0 2 2 5 4 1 5 1 2
Neighs:        861.917 ave        1184 max         549 min
Histogram: 2 0 2 4 4 3 7 1 0 1

Total # of neighbors = 20686
Ave neighs/atom = 57.461111
Neighbor list builds = 611
Dangerous builds = 0
Total wall time: 1:29:44
ERROR: Invalid command-line argument (src/lammps.cpp:443)
--------------------------------------------------------------------------
Primary job  terminated normally, but 1 process returned
a non-zero exit code. Per user-direction, the job has been aborted.
--------------------------------------------------------------------------
--------------------------------------------------------------------------
mpirun detected that one or more processes exited with non-zero status, thus causing
the job to be terminated. The first process to do so was:

  Process name: [[258,1],1]
  Exit code:    1
--------------------------------------------------------------------------
