LAMMPS (15 Sep 2022)
OMP_NUM_THREADS environment is not set. Defaulting to 1 thread. (src/comm.cpp:98)
  using 1 OpenMP thread(s) per MPI task
Lattice spacing in x,y,z = 1.5874011 1.5874011 1.5874011
Created orthogonal box = (0 0 0) to (12.699208 12.699208 12.699208)
  4 by 6 by 6 MPI processor grid
Created 2048 atoms
  using lattice units in orthogonal box = (0 0 0) to (12.699208 12.699208 12.699208)
  create_atoms CPU = 11.961 seconds
Generated 0 of 0 mixed pair_coeff terms from geometric mixing rule
Neighbor list info ...
  update: every = 1 steps, delay = 0 steps, check = yes
  max neighbors/atom: 2000, page size: 100000
  master list distance cutoff = 1.3
  ghost atom cutoff = 1.3
  binsize = 0.65, bins = 20 20 20
  1 neighbor lists, perpetual/occasional/extra = 1 0 0
  (1) pair lj/cut, perpetual
      attributes: half, newton on
      pair build: half/bin/atomonly/newton
      stencil: half/bin/3d
      bin: standard
Setting up Verlet run ...
  Unit style    : lj
  Current step  : 0
  Time step     : 0.01
Per MPI rank memory allocation (min/avg/max) = 3.062 | 3.062 | 3.062 Mbytes
   Step          Temp          E_pair         E_mol          TotEng         Press     
         0   3              0              0              4.4978027      2.9985352    
       500   3.146022       1.9066299      0              6.6233586      26.396994    
      1000   3.0854973      1.8346788      0              6.4606649      25.482242    
      1500   3.0432017      1.8333491      0              6.3959228      25.354583    
      2000   3.0420992      1.7606441      0              6.3215647      25.163712    
      2500   3.1077142      1.8137426      0              6.4730377      25.487816    
      3000   2.9708146      1.7881102      0              6.2421561      25.316028    
      3500   2.9654529      1.8266303      0              6.2726377      25.487296    
      4000   3.0145317      1.8546223      0              6.374212       25.454883    
      4500   2.9890577      1.7678254      0              6.2492227      24.933933    
      5000   3.0405484      1.7897044      0              6.3483         25.17436     
      5500   2.9387193      1.8715052      0              6.2774317      25.604089    
      6000   2.9809919      1.8084269      0              6.2777314      25.400692    
