LAMMPS (15 Sep 2022)
OMP_NUM_THREADS environment is not set. Defaulting to 1 thread. (src/comm.cpp:98)
  using 1 OpenMP thread(s) per MPI task
Lattice spacing in x,y,z = 1.5874011 1.5874011 1.5874011
Created orthogonal box = (0 0 0) to (12.699208 12.699208 12.699208)
  4 by 6 by 6 MPI processor grid
Created 2048 atoms
  using lattice units in orthogonal box = (0 0 0) to (12.699208 12.699208 12.699208)
  create_atoms CPU = 0.013 seconds
Generated 0 of 0 mixed pair_coeff terms from geometric mixing rule
Neighbor list info ...
  update: every = 1 steps, delay = 0 steps, check = yes
  max neighbors/atom: 2000, page size: 100000
  master list distance cutoff = 1.3
  ghost atom cutoff = 1.3
  binsize = 0.65, bins = 20 20 20
  1 neighbor lists, perpetual/occasional/extra = 1 0 0
  (1) pair lj/cut, perpetual
      attributes: half, newton on
      pair build: half/bin/atomonly/newton
      stencil: half/bin/3d
      bin: standard
Setting up Verlet run ...
  Unit style    : lj
  Current step  : 0
  Time step     : 0.01
Per MPI rank memory allocation (min/avg/max) = 3.062 | 3.062 | 3.062 Mbytes
   Step          Temp          E_pair         E_mol          TotEng         Press     
         0   3              0              0              4.4978027      2.9985352    
       500   3.146022       1.9066299      0              6.6233586      26.396994    
      1000   3.0854973      1.8346788      0              6.4606649      25.482242    
      1500   3.0432017      1.8333491      0              6.3959228      25.354583    
      2000   3.0420992      1.7606441      0              6.3215647      25.163712    
      2500   3.1077142      1.8137426      0              6.4730377      25.487816    
      3000   2.9708146      1.7881102      0              6.2421561      25.316028    
      3500   2.9654529      1.8266303      0              6.2726377      25.487296    
      4000   3.0145317      1.8546223      0              6.374212       25.454883    
      4500   2.9890577      1.7678254      0              6.2492227      24.933933    
      5000   3.0405484      1.7897044      0              6.3483         25.17436     
      5500   2.9387193      1.8715052      0              6.2774317      25.604089    
      6000   2.9809919      1.8084269      0              6.2777314      25.400692    
      6500   3.0113984      1.7068948      0              6.2217868      24.410718    
      7000   3.0023092      1.7905537      0              6.2918185      24.995758    
      7500   3.0544244      1.8494147      0              6.4288142      25.761511    
      8000   2.9548018      1.8222825      0              6.252321       25.536463    
      8500   2.9659323      1.8355272      0              6.2822533      25.392971    
      9000   2.9898062      1.6943513      0              6.1768708      24.557476    
      9500   2.9807798      1.8185091      0              6.2874956      25.571535    
     10000   2.9777389      1.788762       0              6.2531894      25.035244    
     10500   3.0513991      1.7854764      0              6.3603401      25.086895    
     11000   2.985338       1.7778011      0              6.2536215      24.87134     
     11500   3.0144469      1.7907938      0              6.3102564      25.1633      
     12000   3.1299136      1.8459255      0              6.5385035      25.6714      
     12500   2.9907511      1.8034317      0              6.287368       25.340034    
     13000   3.0420275      1.8054369      0              6.3662501      25.146345    
     13500   2.8849636      1.8328182      0              6.1581506      25.533151    
     14000   3.0123632      1.7944921      0              6.3108306      25.161751    
     14500   2.9619104      1.7521853      0              6.1928815      24.793143    
     15000   3.023244       1.7760967      0              6.3087484      24.915515    
     15500   3.1029282      1.8089253      0              6.4610449      25.349421    
     16000   2.9294638      1.8276817      0              6.2197317      25.088728    
     16500   2.9929785      1.8635214      0              6.3507971      25.91361     
     17000   2.9312557      1.7605165      0              6.1552531      24.806198    
     17500   2.969094       1.8307523      0              6.2822186      25.513282    
     18000   3.083774       1.8180123      0              6.4414147      25.562881    
     18500   2.9597346      1.8338121      0              6.2712463      25.597197    
     19000   3.006276       1.8326725      0              6.3398847      25.60085     
     19500   2.9468479      1.7373999      0              6.1555134      24.366549    
     20000   2.9699029      1.8497399      0              6.3024189      25.851638    
     20500   3.052768       1.8293608      0              6.4062769      25.70807     
     21000   3.029373       1.8040971      0              6.3459377      25.277478    
     21500   3.0143857      1.8237007      0              6.3430715      25.516386    
     22000   3.0948531      1.8808123      0              6.5208252      25.98328     
     22500   2.9685243      1.8062204      0              6.2568327      25.423537    
     23000   2.9560228      1.8722467      0              6.3041159      25.696719    
     23500   3.0464078      1.9036722      0              6.4710527      26.266783    
     24000   2.9717797      1.800137       0              6.25563        25.204481    
     24500   2.9941617      1.794439       0              6.2834885      25.236433    
     25000   2.9963361      1.7379522      0              6.2302617      24.536143    
     25500   3.0089195      1.7646636      0              6.275839       24.930463    
     26000   3.0219076      1.821737       0              6.3523851      25.374354    
     26500   2.9805307      1.7815446      0              6.2501576      25.160567    
     27000   2.9426446      1.8754752      0              6.287287       25.651783    
     27500   2.9732094      1.7930098      0              6.2506463      25.199865    
     28000   2.9768075      1.7735317      0              6.2365628      24.99173     
     28500   3.0035397      1.7690761      0              6.2721857      25.227398    
     29000   2.9921137      1.7375795      0              6.2235586      24.676234    
     29500   2.9632725      1.8994737      0              6.3422121      26.017181    
     30000   3.0962085      1.8967814      0              6.5388264      26.123768    
     30500   2.9331625      1.8151473      0              6.2127428      25.260078    
     31000   3.0303484      1.826905       0              6.3702081      25.374165    
     31500   2.8979653      1.8064805      0              6.1513059      25.327876    
     32000   2.9871396      1.8503217      0              6.3288433      25.568195    
     32500   3.0583343      1.6577203      0              6.2429818      24.127142    
     33000   3.0002834      1.8262094      0              6.3244371      25.429248    
     33500   3.1345393      1.7012323      0              6.4007454      24.519623    
     34000   2.9263214      1.8959397      0              6.2832785      25.808543    
     34500   3.0593977      1.7612188      0              6.3480746      24.905673    
     35000   2.8977453      1.77154        0              6.1160356      24.731602    
     35500   3.0177469      1.770853       0              6.2952631      25.131287    
     36000   3.0787508      1.7845396      0              6.4004109      25.044799    
     36500   3.0184184      1.820743       0              6.3461598      25.516815    
     37000   3.0219463      1.7977982      0              6.3285043      25.150389    
     37500   3.055766       1.6826552      0              6.2640661      24.223344    
     38000   3.1137933      1.8293892      0              6.4977986      25.504303    
     38500   2.9911133      1.7624108      0              6.2468899      25.086801    
     39000   2.9410819      1.8194485      0              6.2289173      25.269319    
     39500   2.9695593      1.7806101      0              6.2327741      24.863634    
     40000   2.9555112      1.8230831      0              6.2541852      25.425542    
     40500   2.9556549      1.8519131      0              6.2832307      25.591028    
     41000   2.9850217      1.77649        0              6.2518362      24.924943    
     41500   2.9778939      1.8304826      0              6.2951425      25.466603    
     42000   3.1068123      1.8166509      0              6.4745939      25.543036    
     42500   2.9646912      1.8270213      0              6.2718867      25.378306    
     43000   2.9634483      1.9933316      0              6.4363335      26.841729    
     43500   3.0767797      1.8931587      0              6.5060747      26.215282    
     44000   3.0283656      1.7419621      0              6.2822924      24.537161    
     44500   3.0233642      1.9064601      0              6.4392921      26.018223    
     45000   3.057886       1.7899279      0              6.3745172      25.157576    
     45500   3.091413       1.8379113      0              6.4727666      25.586993    
     46000   2.9441685      1.9161305      0              6.3302269      26.347162    
     46500   3.0443633      1.8326694      0              6.3969846      25.513168    
     47000   3.0098746      1.8815404      0              6.3941478      25.965106    
     47500   3.0130503      1.8885037      0              6.4058723      25.994047    
     48000   2.9256925      1.8729074      0              6.2593032      25.730196    
     48500   2.9694318      1.8726761      0              6.3246489      25.685311    
     49000   2.9287233      1.7732857      0              6.1642256      25.004776    
     49500   2.9582081      1.8091189      0              6.2442643      25.224836    
     50000   2.9627522      1.7867596      0              6.2287179      24.990382    
Loop time of 3.8062 on 144 procs for 50000 steps with 2048 atoms

Performance: 11349916.743 tau/day, 13136.478 timesteps/s, 26.904 Matom-step/s
65.2% CPU use with 144 MPI tasks x 1 OpenMP threads

MPI task timing breakdown:
Section |  min time  |  avg time  |  max time  |%varavg| %total
---------------------------------------------------------------
Pair    | 0.036773   | 0.038666   | 0.04329    |   0.5 |  1.02
Neigh   | 0.16101    | 0.16546    | 0.1748     |   0.7 |  4.35
Comm    | 2.0418     | 2.2339     | 2.4552     |   6.6 | 58.69
Output  | 0.0056802  | 0.0061401  | 0.010501   |   0.5 |  0.16
Modify  | 0.42231    | 0.79008    | 1.0144     |  14.9 | 20.76
Other   |            | 0.572      |            |       | 15.03

Nlocal:        14.2222 ave          20 max           9 min
Histogram: 2 6 15 35 30 21 14 12 7 2
Nghost:        114.875 ave         128 max         106 min
Histogram: 12 14 18 24 22 35 11 4 2 2
Neighs:        68.3125 ave         102 max          39 min
Histogram: 3 4 17 32 31 25 21 5 3 3

Total # of neighbors = 9837
Ave neighs/atom = 4.8032227
Neighbor list builds = 20223
Dangerous builds = 0
Generated 0 of 0 mixed pair_coeff terms from geometric mixing rule
Setting up Verlet run ...
  Unit style    : lj
  Current step  : 50000
  Time step     : 0.01
Per MPI rank memory allocation (min/avg/max) = 3.103 | 3.103 | 3.104 Mbytes
   Step          Temp          E_pair         E_mol          TotEng         Press     
     50000   2.9627522      1.7867596      0              6.2287179      24.990382    
     50500   2.9510683      1.805159       0              6.2296001      25.286988    
     51000   2.9702497      1.7734718      0              6.2266709      25.067683    
     51500   2.9400535      1.775847       0              6.1837739      24.949159    
     52000   2.9570955      1.7839961      0              6.2174735      25.045358    
     52500   2.9493886      1.7597275      0              6.1816502      24.904624    
     53000   2.9640246      1.8481213      0              6.2919873      25.780218    
     53500   2.9621903      1.7501804      0              6.1912962      24.744727    
     54000   2.8487043      1.7902358      0              6.0612057      24.997542    
     54500   2.8929968      1.7082306      0              6.0456069      24.16577     
     55000   2.7903257      1.7156762      0              5.8991211      24.285398    
     55500   2.8491258      1.6884939      0              5.9600957      24.096248    
     56000   2.8619562      1.6359344      0              5.9267726      23.683378    
     56500   2.8054912      1.6934371      0              5.899619       23.84446     
     57000   2.9029782      1.6291268      0              5.9814678      23.655843    
     57500   2.7082959      1.6681693      0              5.7286295      23.522187    
     58000   2.7828194      1.6570772      0              5.8292681      23.679383    
     58500   2.7520926      1.5308506      0              5.6569738      22.819828    
     59000   2.7893786      1.570918       0              5.7529429      23.099299    
     59500   2.7341445      1.6890253      0              5.7882395      23.988199    
     60000   2.8510429      1.6795331      0              5.9540093      24.049199    
     60500   2.7287462      1.5262924      0              5.6174132      22.49537     
     61000   2.724543       1.5424279      0              5.6272469      22.52        
     61500   2.6263954      1.591419       0              5.5290886      22.842225    
     62000   2.6338944      1.531175       0              5.4800875      22.505691    
     62500   2.6424999      1.5137054      0              5.4755199      22.019011    
     63000   2.5653067      1.6422904      0              5.4883716      23.440674    
     63500   2.6554281      1.5670935      0              5.5482908      22.774148    
     64000   2.697938       1.5252648      0              5.5701957      22.368947    
     64500   2.5998191      1.58398        0              5.4818045      22.539131    
     65000   2.5568175      1.5134126      0              5.3467661      22.256076    
     65500   2.5271491      1.4804713      0              5.269344       21.887572    
     66000   2.5176321      1.4195011      0              5.1941052      21.535152    
     66500   2.5074435      1.4172865      0              5.1766152      21.316456    
     67000   2.5496351      1.3974101      0              5.2199953      21.227351    
     67500   2.5148419      1.4733106      0              5.2437314      21.765333    
     68000   2.5471472      1.4733513      0              5.2922064      21.753932    
     68500   2.4351892      1.4827583      0              5.1337585      21.820962    
     69000   2.4816046      1.4124401      0              5.1330293      21.358495    
     69500   2.4207144      1.4938675      0              5.1231661      21.86906     
     70000   2.4841054      1.4024805      0              5.1268192      21.295279    
     70500   2.4480539      1.3907623      0              5.06105        20.945936    
     71000   2.2880219      1.3508203      0              4.7811774      20.509903    
     71500   2.3344336      1.3736704      0              4.873611       20.933341    
     72000   2.2901665      1.4533922      0              4.8869645      21.501554    
     72500   2.3149268      1.3903329      0              4.8610276      20.745458    
     73000   2.3023573      1.3069611      0              4.7588108      20.083151    
     73500   2.3379259      1.346638       0              4.8518145      20.448502    
     74000   2.3696865      1.3752902      0              4.9280843      20.780344    
     74500   2.2244769      1.3564728      0              4.6915588      20.295476    
     75000   2.2557091      1.2887353      0              4.6706469      20.004807    
     75500   2.2157195      1.2993783      0              4.6213347      19.792353    
     76000   2.2232723      1.2889533      0              4.6222333      19.781966    
     76500   2.2585158      1.22111        0              4.6072294      18.898632    
     77000   2.2224343      1.2904444      0              4.6224681      19.902181    
     77500   2.2306291      1.2929853      0              4.6372952      19.805446    
     78000   2.2025957      1.3091576      0              4.6114379      20.080949    
     78500   2.166217       1.2511031      0              4.498842       19.486981    
     79000   2.1779435      1.2935219      0              4.558842       19.800919    
     79500   2.112608       1.2534819      0              4.4208466      19.311803    
     80000   2.1396261      1.2309083      0              4.4387803      19.213149    
     80500   2.0793125      1.2414244      0              4.3588702      19.299506    
     81000   2.0966326      1.1969955      0              4.3404088      18.661214    
     81500   2.0509785      1.2081953      0              4.2831609      18.901883    
     82000   2.0706005      1.1891465      0              4.2935307      18.831178    
     82500   2.0616388      1.1798876      0              4.2708358      18.530829    
     83000   2.0670078      1.202917       0              4.3019148      18.719254    
     83500   2.0259078      1.1810843      0              4.2184621      18.607567    
     84000   2.0493797      1.150721       0              4.2232896      18.208958    
     84500   2.0731522      1.1477222      0              4.2559321      18.48187     
     85000   1.9678705      1.1336097      0              4.0839741      18.089134    
     85500   1.9662803      1.1244709      0              4.0724513      17.778801    
     86000   1.9517764      1.1063499      0              4.032585       17.804856    
     86500   1.9537549      1.0861971      0              4.0153984      17.658284    
     87000   1.9603738      1.0700587      0              4.0091835      17.236513    
     87500   1.9568006      1.0653702      0              3.999138       17.444023    
     88000   1.9083997      1.124374       0              3.9855758      17.950682    
     88500   1.9115422      1.0660901      0              3.9320033      17.283624    
     89000   1.8790825      1.0810594      0              3.898307       17.392891    
     89500   1.8875557      1.0240407      0              3.8539917      16.729091    
     90000   1.8748712      1.0730618      0              3.8839954      17.20059     
     90500   1.8443844      1.0461209      0              3.8113467      17.006177    
     91000   1.8919988      1.000628       0              3.8372405      16.534965    
     91500   1.7893461      1.0489029      0              3.7316114      16.983025    
     92000   1.8175897      1.0209398      0              3.7459931      16.733707    
     92500   1.7568976      0.99206303     0              3.6261227      16.584386    
     93000   1.7041082      1.0047236      0              3.5596378      16.500887    
     93500   1.7428718      0.95849877     0              3.5715299      15.855067    
     94000   1.6997592      0.91677942     0              3.4651733      15.667425    
     94500   1.7284331      0.91880465     0              3.5101884      15.58149     
     95000   1.7318883      0.96414854     0              3.5607126      16.227372    
     95500   1.7125764      0.93063549     0              3.4982458      15.730378    
     96000   1.6983786      0.96587668     0              3.5122006      16.008168    
     96500   1.6408792      0.89238046     0              3.3524975      15.365893    
     97000   1.6392641      0.87941654     0              3.3371121      14.994538    
     97500   1.610149       0.87716367     0              3.2912079      15.02404     
     98000   1.5897953      0.87827502     0              3.2618036      15.065041    
     98500   1.5546027      0.92313856     0              3.253904       15.551236    
     99000   1.600697       0.86261785     0              3.262491       14.887118    
     99500   1.585293       0.86823141     0              3.2450099      15.006776    
    100000   1.5849419      0.86008372     0              3.2363357      14.986757    
    100500   1.5708878      0.84631787     0              3.2014991      14.55229     
    101000   1.5169254      0.86849963     0              3.1427767      14.876193    
    101500   1.5066938      0.85624477     0              3.1151819      14.674372    
    102000   1.4927987      0.74233347     0              2.9804381      13.590701    
    102500   1.4662708      0.81366812     0              3.0120004      14.249168    
    103000   1.4406318      0.77160272     0              2.9314952      13.757347    
    103500   1.4264533      0.81432946     0              2.9529646      14.209873    
    104000   1.4620834      0.80252806     0              2.9945823      14.125765    
    104500   1.4436515      0.7868399      0              2.9512598      13.935314    
    105000   1.4296022      0.77089065     0              2.9142469      13.77169     
    105500   1.404107       0.72558183     0              2.830714       13.272506    
    106000   1.3781619      0.75806212     0              2.8242955      13.642088    
    106500   1.3501206      0.72689601     0              2.7510881      13.199471    
    107000   1.334607       0.72202911     0              2.7229622      13.22308     
    107500   1.3153031      0.75102985     0              2.7230211      13.414679    
    108000   1.3661591      0.66536395     0              2.713602       12.502571    
    108500   1.3410983      0.68120505     0              2.6918703      12.726889    
    109000   1.3209471      0.65397373     0              2.6344269      12.304063    
    109500   1.3230568      0.66779511     0              2.6514112      12.459822    
    110000   1.273532       0.69525082     0              2.6046161      12.689323    
    110500   1.2604388      0.68192675     0              2.5716618      12.469747    
    111000   1.2194811      0.68250636     0              2.5108349      12.484599    
    111500   1.251108       0.66827875     0              2.5440244      12.489692    
    112000   1.1912802      0.61593652     0              2.4019843      11.707389    
    112500   1.1753072      0.6278176      0              2.3899176      11.829921    
    113000   1.1421801      0.61834425     0              2.3307779      11.557717    
    113500   1.1494622      0.6104461      0              2.3337975      11.706015    
    114000   1.1680514      0.55647176     0              2.3076934      10.875872    
    114500   1.1443535      0.59422535     0              2.3099175      11.41932     
    115000   1.1262404      0.58929075     0              2.2778265      11.303242    
    115500   1.1169712      0.58280715     0              2.2574458      11.261875    
    116000   1.0677252      0.56270431     0              2.1635101      10.91118     
    116500   1.0857695      0.5266278      0              2.1544868      10.700955    
    117000   1.0845305      0.56126504     0              2.1872665      10.9235      
    117500   1.0578732      0.5213013      0              2.1073362      10.4111      
    118000   1.047741       0.52667406     0              2.0975182      10.489253    
    118500   1.0481281      0.53701142     0              2.1084359      10.546813    
    119000   1.0046033      0.49483679     0              2.0010059      10.173208    
    119500   0.98556778     0.49769009     0              1.9753199      10.103217    
    120000   0.97314015     0.47390651     0              1.932904       9.7735314    
    120500   0.92485673     0.49446756     0              1.8810753      10.000379    
    121000   0.92161065     0.49967877     0              1.8814197      10.127407    
    121500   0.90171325     0.4888993      0              1.8408087      9.989299     
    122000   0.89681646     0.4740138      0              1.8185816      9.7367602    
    122500   0.88730227     0.45556182     0              1.7858653      9.3616003    
    123000   0.88820673     0.43488937     0              1.7665489      9.2078018    
    123500   0.874952       0.40974516     0              1.7215323      8.8608866    
    124000   0.88563063     0.41066824     0              1.7384655      8.9855798    
    124500   0.83167001     0.42862131     0              1.6755172      9.0995562    
    125000   0.82516534     0.41816151     0              1.6553052      8.8625306    
    125500   0.81257895     0.40988371     0              1.628157       8.7271276    
    126000   0.80204704     0.38806293     0              1.5905461      8.4727047    
    126500   0.8010913      0.38748353     0              1.5885337      8.5615763    
    127000   0.75506983     0.36855656     0              1.5006083      8.213505     
    127500   0.74750889     0.35314491     0              1.4738608      7.9386142    
    128000   0.71178698     0.36381744     0              1.4309766      8.0657593    
    128500   0.72371553     0.34623431     0              1.4312775      7.8157844    
    129000   0.72002718     0.32429593     0              1.4038093      7.489011     
    129500   0.70190213     0.33879544     0              1.3911345      7.6273368    
    130000   0.68004464     0.32336078     0              1.3429297      7.4514685    
    130500   0.69345526     0.29293086     0              1.3326059      7.0467678    
    131000   0.68365484     0.3046273      0              1.3296088      7.1731453    
    131500   0.63811659     0.30368165     0              1.2603892      7.1505032    
    132000   0.62963884     0.30832298     0              1.2523201      7.1790116    
    132500   0.60457608     0.27903389     0              1.1854552      6.7531158    
    133000   0.59760667     0.25869125     0              1.1546636      6.409779     
    133500   0.58541613     0.27356545     0              1.1512609      6.7256608    
    134000   0.54897528     0.26212698     0              1.0851878      6.4203375    
    134500   0.54114183     0.24686358     0              1.05818        6.2133107    
    135000   0.53638469     0.22229524     0              1.0264794      5.9321786    
    135500   0.51420101     0.22796048     0              0.99888538     5.8893695    
    136000   0.50206053     0.22409213     0              0.97681521     5.7947038    
    136500   0.49083375     0.2244446      0              0.96033574     5.8159926    
    137000   0.48367022     0.20571866     0              0.93086973     5.436385     
    137500   0.47649309     0.19890117     0              0.91329181     5.3626269    
    138000   0.45894816     0.19194189     0              0.88002799     5.1760286    
    138500   0.44209333     0.17550182     0              0.83831801     4.9865518    
    139000   0.44027951     0.17459922     0              0.83469602     4.9234989    
    139500   0.39990571     0.16920257     0              0.76876824     4.7221829    
    140000   0.38834218     0.15993766     0              0.74216651     4.5563296    
    140500   0.3773674      0.14657927     0              0.71235399     4.3896971    
    141000   0.36913054     0.14308239     0              0.69650783     4.3152765    
    141500   0.34718022     0.13302752     0              0.65354357     4.112456     
    142000   0.34468062     0.13100234     0              0.64777081     3.998562     
    142500   0.31779302     0.11617847     0              0.59263525     3.6954493    
    143000   0.30434655     0.11730986     0              0.57360677     3.7273127    
    143500   0.28838718     0.10329437     0              0.53566392     3.3616758    
    144000   0.28372604     0.1009865      0              0.52636775     3.3437523    
    144500   0.26233382     0.086269101    0              0.47957769     3.0669684    
    145000   0.24808105     0.081403375    0              0.45334325     2.9440017    
    145500   0.2330188      0.07623342     0              0.42559096     2.7694196    
    146000   0.21523895     0.073752148    0              0.39645293     2.734801     
    146500   0.20154589     0.061400457    0              0.36357168     2.4162472    
    147000   0.18627854     0.05866572     0              0.33794709     2.3103029    
    147500   0.16748329     0.052844142    0              0.3039464      2.1659064    
    148000   0.15982396     0.047150555    0              0.28676944     2.0077421    
    148500   0.14628069     0.039329374    0              0.25864327     1.7772631    
    149000   0.12945177     0.038265248    0              0.23234808     1.7479443    
    149500   0.11868957     0.028563752    0              0.20651117     1.4300804    
    150000   0.10136276     0.026503421    0              0.17847333     1.3688583    
Loop time of 7.14562 on 144 procs for 100000 steps with 2048 atoms

Performance: 12091329.605 tau/day, 13994.594 timesteps/s, 28.661 Matom-step/s
64.7% CPU use with 144 MPI tasks x 1 OpenMP threads

MPI task timing breakdown:
Section |  min time  |  avg time  |  max time  |%varavg| %total
---------------------------------------------------------------
Pair    | 0.067399   | 0.070046   | 0.078338   |   0.7 |  0.98
Neigh   | 0.22501    | 0.23131    | 0.24514    |   0.8 |  3.24
Comm    | 3.5159     | 3.8904     | 4.3235     |   9.7 | 54.44
Output  | 0.45081    | 0.45168    | 0.45203    |   0.0 |  6.32
Modify  | 0.65307    | 1.3866     | 1.8248     |  22.0 | 19.40
Other   |            | 1.116      |            |       | 15.61

Nlocal:        14.2222 ave          19 max          10 min
Histogram: 3 8 14 17 36 33 22 9 1 1
Nghost:        113.576 ave         124 max         105 min
Histogram: 4 10 13 31 28 30 17 4 5 2
Neighs:        72.7292 ave          97 max          43 min
Histogram: 2 3 12 11 31 23 24 26 8 4

Total # of neighbors = 10473
Ave neighs/atom = 5.1137695
Neighbor list builds = 28207
Dangerous builds = 0
Total wall time: 0:00:11
LAMMPS (15 Sep 2022)
OMP_NUM_THREADS environment is not set. Defaulting to 1 thread. (src/comm.cpp:98)
  using 1 OpenMP thread(s) per MPI task
Lattice spacing in x,y,z = 1.5377619 1.5377619 1.5377619
Created orthogonal box = (0 0 0) to (12.302095 12.302095 12.302095)
  4 by 6 by 6 MPI processor grid
Created 2048 atoms
  using lattice units in orthogonal box = (0 0 0) to (12.302095 12.302095 12.302095)
  create_atoms CPU = 0.011 seconds
Generated 0 of 0 mixed pair_coeff terms from geometric mixing rule
Neighbor list info ...
  update: every = 1 steps, delay = 0 steps, check = yes
  max neighbors/atom: 2000, page size: 100000
  master list distance cutoff = 1.3
  ghost atom cutoff = 1.3
  binsize = 0.65, bins = 19 19 19
  1 neighbor lists, perpetual/occasional/extra = 1 0 0
  (1) pair lj/cut, perpetual
      attributes: half, newton on
      pair build: half/bin/atomonly/newton
      stencil: half/bin/3d
      bin: standard
Setting up Verlet run ...
  Unit style    : lj
  Current step  : 0
  Time step     : 0.01
Per MPI rank memory allocation (min/avg/max) = 3.061 | 3.061 | 3.061 Mbytes
   Step          Temp          E_pair         E_mol          TotEng         Press     
         0   3              0              0              4.4978027      3.2983887    
       500   3.175164       2.4745518      0              7.2349723      36.480427    
      1000   3.0248762      2.4166766      0              6.9517754      35.564577    
      1500   2.9789333      2.4518814      0              6.9180996      36.104952    
      2000   3.0026164      2.4131929      0              6.9149183      35.711656    
      2500   2.9749539      2.48523        0              6.945482       36.233158    
      3000   2.9135571      2.4789123      0              6.847114       36.268409    
      3500   2.9931241      2.4881305      0              6.9756244      36.35538     
      4000   2.8867324      2.3598007      0              6.6877849      35.155799    
      4500   3.0278351      2.3998925      0              6.9394275      35.828679    
      5000   2.9528446      2.5146566      0              6.9417608      36.607602    
      5500   2.9794825      2.4530223      0              6.9200639      35.955933    
      6000   3.0854235      2.4926822      0              7.1185576      36.478231    
      6500   3.0014857      2.4177909      0              6.9178212      35.64301     
      7000   2.9912378      2.418098       0              6.9027638      35.648922    
      7500   2.9451871      2.5254254      0              6.9410489      36.509478    
      8000   2.9125302      2.5669822      0              6.9336444      37.000401    
      8500   3.0181404      2.4195736      0              6.9445737      35.804166    
      9000   2.9922952      2.407133       0              6.8933842      35.727474    
      9500   3.0021396      2.5330776      0              7.0340882      36.693074    
     10000   2.9781526      2.4525269      0              6.9175745      36.183034    
     10500   2.9790833      2.5531314      0              7.0195744      37.156825    
     11000   2.9601963      2.4878829      0              6.9260092      36.186843    
     11500   3.0488759      2.352723       0              6.9238038      34.995333    
     12000   3.0059702      2.4423429      0              6.9490966      36.000266    
     12500   2.9669878      2.4135324      0              6.8618411      35.323504    
     13000   3.0605087      2.4049482      0              6.9934696      35.556649    
     13500   2.9410392      2.4049997      0              6.8144044      35.574417    
     14000   3.054292       2.438482       0              7.0176829      35.865324    
     14500   2.939581       2.3587253      0              6.7659437      35.195207    
     15000   2.9585211      2.5670857      0              7.0027005      37.146385    
     15500   3.0082023      2.5391469      0              7.0492471      37.223595    
     16000   2.9983038      2.473956       0              6.9692157      36.288013    
     16500   3.0824444      2.6126034      0              7.2340124      37.593752    
     17000   2.9728466      2.5372811      0              6.9943736      36.608174    
     17500   3.0652536      2.3281023      0              6.9237377      34.807431    
     18000   3.054671       2.5403623      0              7.1201314      36.756262    
     18500   2.9965941      2.4399978      0              6.9326942      35.924741    
     19000   3.0211474      2.6282484      0              7.1577568      37.708362    
     19500   2.9965634      2.4643512      0              6.9570015      35.971156    
     20000   2.9989031      2.5595031      0              7.0556613      37.00409     
     20500   2.9845149      2.5334364      0              7.0080228      36.418173    
     21000   3.0855453      2.4905531      0              7.116611       36.427112    
     21500   2.9634167      2.4597887      0              6.9027433      36.045233    
     22000   3.0648853      2.5499853      0              7.1450685      37.172478    
     22500   2.9635814      2.4880711      0              6.9312727      36.136981    
     23000   3.0627098      2.4855661      0              7.0773876      36.400771    
     23500   3.0254262      2.488879       0              7.0248025      36.404043    
     24000   2.9698925      2.3801673      0              6.8328309      35.229764    
     24500   3.022143       2.4749213      0              7.0059224      36.264408    
     25000   3.0273476      2.4481385      0              6.9869427      36.173158    
     25500   3.0084859      2.5373103      0              7.0478358      36.938472    
     26000   2.9471743      2.453867       0              6.8724699      35.717769    
     26500   2.9725392      2.4880754      0              6.944707       36.045713    
     27000   2.9841663      2.3613465      0              6.8354103      35.00791     
     27500   3.0349271      2.4409272      0              6.9910951      36.003909    
     28000   2.9826924      2.3908542      0              6.8627082      35.300793    
     28500   2.9978973      2.4339847      0              6.9286349      35.654581    
     29000   3.0185229      2.5146375      0              7.040211       36.480042    
     29500   3.0369053      2.4194269      0              6.9725605      35.803581    
     30000   3.1096136      2.5479158      0              7.2100586      36.864314    
     30500   2.9825255      2.4730336      0              6.9446374      36.023582    
     31000   3.1040857      2.5732398      0              7.2270949      37.143166    
     31500   2.9742657      2.4861854      0              6.9454056      35.976158    
     32000   3.0835058      2.4822309      0              7.1052312      36.346464    
     32500   3.0532454      2.4077465      0              6.9853784      35.855567    
     33000   3.1562671      2.5277427      0              7.2598317      36.60458     
     33500   2.9763051      2.4335565      0              6.8958342      35.862146    
     34000   2.9607284      2.4653609      0              6.904285       36.109877    
     34500   3.0467275      2.4029027      0              6.9707625      35.649916    
     35000   2.998842       2.5489168      0              7.0449834      36.93515     
     35500   2.9017091      2.4796421      0              6.8300805      36.172689    
     36000   2.971348       2.4748887      0              6.9297344      36.295131    
     36500   2.9750476      2.5202822      0              6.9806746      36.245273    
     37000   3.0898191      2.4097037      0              7.0421693      35.763272    
     37500   2.9521841      2.5427826      0              6.9688965      36.473737    
     38000   2.9471155      2.465888       0              6.8844027      35.87149     
     38500   3.0414943      2.5000506      0              7.0600644      36.508399    
     39000   2.9160206      2.519822       0              6.8917172      36.627044    
     39500   3.062283       2.5514237      0              7.1426053      36.843109    
     40000   2.9820403      2.5636069      0              7.0344833      36.805243    
     40500   3.0221222      2.4702943      0              7.0012641      36.190407    
     41000   3.0213983      2.4476541      0              6.9775387      35.975176    
     41500   2.9436665      2.5089376      0              6.9222813      36.36958     
     42000   2.9844228      2.5058032      0              6.9802516      36.553196    
     42500   3.0666383      2.5252081      0              7.1229195      36.69049     
     43000   2.9844659      2.4976801      0              6.972193       36.417217    
     43500   2.9463395      2.4241214      0              6.8414727      35.683251    
     44000   3.0204043      2.4743173      0              7.0027115      35.933907    
     44500   3.067033       2.613975       0              7.2122782      37.603337    
     45000   3.050188       2.3442751      0              6.917323       35.103488    
     45500   2.9979117      2.4983181      0              6.9929899      36.321089    
     46000   2.9912833      2.4584009      0              6.943135       36.015013    
     46500   3.070432       2.4260644      0              7.0294635      35.838641    
     47000   3.0623831      2.501489       0              7.0928208      36.570527    
     47500   2.9455903      2.443256       0              6.859484       35.960636    
     48000   3.0739463      2.4915683      0              7.1002364      36.599281    
     48500   3.0053008      2.4762366      0              6.9819867      36.114017    
     49000   2.9973259      2.5744469      0              7.0682405      36.944035    
     49500   3.0139448      2.4474037      0              6.9661133      35.905177    
     50000   3.0624627      2.4730342      0              7.0644853      36.442787    
Loop time of 3.85317 on 144 procs for 50000 steps with 2048 atoms

Performance: 11211551.057 tau/day, 12976.332 timesteps/s, 26.576 Matom-step/s
65.6% CPU use with 144 MPI tasks x 1 OpenMP threads

MPI task timing breakdown:
Section |  min time  |  avg time  |  max time  |%varavg| %total
---------------------------------------------------------------
Pair    | 0.043373   | 0.045487   | 0.049863   |   0.7 |  1.18
Neigh   | 0.17216    | 0.17724    | 0.19788    |   1.0 |  4.60
Comm    | 2.0517     | 2.2549     | 2.4676     |   6.5 | 58.52
Output  | 0.005707   | 0.0060356  | 0.0096291  |   0.4 |  0.16
Modify  | 0.44992    | 0.79309    | 1.0112     |  14.8 | 20.58
Other   |            | 0.5764     |            |       | 14.96

Nlocal:        14.2222 ave          18 max          10 min
Histogram: 2 4 11 24 0 43 34 15 10 1
Nghost:         122.66 ave         132 max         114 min
Histogram: 5 9 12 28 18 22 32 10 5 3
Neighs:        75.9792 ave         103 max          53 min
Histogram: 4 9 12 19 38 35 12 7 5 3

Total # of neighbors = 10941
Ave neighs/atom = 5.3422852
Neighbor list builds = 20205
Dangerous builds = 0
Generated 0 of 0 mixed pair_coeff terms from geometric mixing rule
Setting up Verlet run ...
  Unit style    : lj
  Current step  : 50000
  Time step     : 0.01
Per MPI rank memory allocation (min/avg/max) = 3.102 | 3.102 | 3.103 Mbytes
   Step          Temp          E_pair         E_mol          TotEng         Press     
     50000   3.0624627      2.4730342      0              7.0644853      36.442787    
     50500   2.8964235      2.5806501      0              6.9231639      36.669256    
     51000   2.937318       2.4246129      0              6.8284386      35.615646    
     51500   2.9452188      2.4878682      0              6.9035392      36.351098    
     52000   2.9271735      2.5230971      0              6.9117135      36.275706    
     52500   2.9098059      2.384501       0              6.7470786      35.279859    
     53000   2.861346       2.3537209      0              6.6436442      35.127113    
     53500   2.9328975      2.3732407      0              6.7704388      35.006335    
     54000   2.8955025      2.4167162      0              6.7578493      35.35854     
     54500   3.0013993      2.4023943      0              6.9022949      35.383178    
     55000   2.8600547      2.2962265      0              6.5842138      34.296489    
     55500   2.8230287      2.5061636      0              6.7386391      36.326571    
     56000   2.8438548      2.214795       0              6.4784943      33.483187    
     56500   2.8863429      2.2942286      0              6.6216289      34.335183    
     57000   2.8261688      2.2358837      0              6.4730671      33.777754    
     57500   2.8787623      2.336153       0              6.6521879      34.802563    
     58000   2.7433312      2.2447285      0              6.357716       33.850442    
     58500   2.8274953      2.2544084      0              6.4935804      33.844363    
     59000   2.66999        2.2305424      0              6.2335718      33.517333    
     59500   2.7654091      2.2305577      0              6.3766459      33.856253    
     60000   2.6173261      2.1301856      0              6.0542577      32.295118    
     60500   2.6656575      2.1962584      0              6.1927923      33.306806    
     61000   2.6809249      2.21294        0              6.2323637      33.48614     
     61500   2.6253454      2.177346       0              6.1134413      33.104779    
     62000   2.655436       2.1232421      0              6.1044513      32.419129    
     62500   2.6200022      2.062907       0              5.9909913      31.866204    
     63000   2.661331       2.1712024      0              6.1612497      33.086228    
     63500   2.5288094      2.1485297      0              5.9398918      32.544742    
     64000   2.6233733      2.0441554      0              5.9772939      31.753678    
     64500   2.5279006      2.1059513      0              5.8959506      32.148267    
     65000   2.5499587      2.0855116      0              5.908582       32.081594    
     65500   2.5273638      2.1299856      0              5.9191801      32.564257    
     66000   2.5191025      2.0711345      0              5.8479432      31.991453    
     66500   2.6508209      1.9356678      0              5.9099577      30.66427     
     67000   2.5267354      2.0189353      0              5.8071877      31.359325    
     67500   2.5295453      2.0395743      0              5.8320396      31.385027    
     68000   2.5135077      2.0583687      0              5.8267893      31.776105    
     68500   2.5183106      1.9868538      0              5.7624752      31.077305    
     69000   2.4954435      2.0939038      0              5.8352414      31.956837    
     69500   2.4978765      1.968662       0              5.7136473      30.854933    
     70000   2.50894        1.9666018      0              5.7281741      30.944792    
     70500   2.4773517      1.9408234      0              5.6550365      30.41655     
     71000   2.4452936      1.9994662      0              5.6656157      31.114737    
     71500   2.3841732      2.0009922      0              5.5755058      31.0881      
     72000   2.4202235      2.0216619      0              5.6502245      31.323097    
     72500   2.3270378      1.8927963      0              5.3816487      29.799714    
     73000   2.3145967      1.8711113      0              5.3413111      29.88247     
     73500   2.2667634      1.8599092      0              5.2583941      29.686142    
     74000   2.297338       1.8708972      0              5.3152216      29.542935    
     74500   2.2705736      1.8579765      0              5.2621739      29.371231    
     75000   2.2624548      1.8668235      0              5.2588486      29.706725    
     75500   2.3115957      1.8900616      0              5.355762       29.730731    
     76000   2.2377297      1.763734       0              5.1186895      28.391085    
     76500   2.2713513      1.7121458      0              5.1175091      27.984412    
     77000   2.1641559      1.7856087      0              5.0302575      28.783286    
     77500   2.2194949      1.7658332      0              5.09345        28.226123    
     78000   2.2414368      1.7558506      0              5.1163642      28.167943    
     78500   2.1440102      1.7680827      0              4.9825277      28.470873    
     79000   2.2554872      1.6708497      0              5.0524285      27.645705    
     79500   2.1151088      1.6948917      0              4.8660057      27.612895    
     80000   2.0893441      1.7238134      0              4.8562992      27.882836    
     80500   2.1402855      1.5761111      0              4.7849719      26.386963    
     81000   2.0723772      1.7376687      0              4.8447167      27.880041    
     81500   2.1309915      1.6472795      0              4.842206       27.125917    
     82000   2.077615       1.6721092      0              4.78701        27.439619    
     82500   2.0832917      1.655708       0              4.7791197      27.303293    
     83000   2.0400902      1.6415568      0              4.7001979      27.134891    
     83500   2.0207292      1.5667161      0              4.5963298      26.275189    
     84000   2.0129843      1.5850734      0              4.6030755      26.557475    
     84500   1.9889299      1.5224167      0              4.5043547      25.790616    
     85000   1.9841992      1.5806971      0              4.5555426      26.426074    
     85500   2.0064641      1.5597824      0              4.568009       26.220047    
     86000   1.9593629      1.5462161      0              4.4838253      26.060758    
     86500   1.9182782      1.4449296      0              4.3209419      24.947095    
     87000   1.9240174      1.4435015      0              4.3281184      24.749126    
     87500   1.8864755      1.5535078      0              4.3818395      26.075334    
     88000   1.9188633      1.522036       0              4.3989256      25.561877    
     88500   1.9735207      1.5051089      0              4.4639445      25.392326    
     89000   1.9228731      1.3931131      0              4.2760144      24.620678    
     89500   1.8744124      1.4632677      0              4.2735134      24.913318    
     90000   1.8345666      1.4299812      0              4.1804875      24.619086    
     90500   1.799675       1.4236516      0              4.121846       24.499491    
     91000   1.8071148      1.4480389      0              4.1573875      24.595425    
     91500   1.8446925      1.3852131      0              4.1509008      24.180884    
     92000   1.7789407      1.4076827      0              4.0747909      24.287258    
     92500   1.8201779      1.4797133      0              4.2086471      24.861119    
     93000   1.7853135      1.3733403      0              4.0500029      23.827478    
     93500   1.7442288      1.3711132      0              3.9861789      23.963932    
     94000   1.6976178      1.3884477      0              3.933631       23.965015    
     94500   1.7172895      1.3143545      0              3.889031       23.212853    
     95000   1.7210715      1.2602546      0              3.8406013      22.65847     
     95500   1.6666078      1.2945491      0              3.7932401      22.848988    
     96000   1.6969362      1.3044471      0              3.8486085      22.792843    
     96500   1.659321       1.3628096      0              3.8505757      23.705035    
     97000   1.6773968      1.2967359      0              3.8116026      22.904513    
     97500   1.6230131      1.3108082      0              3.7441392      23.076562    
     98000   1.6476565      1.2522516      0              3.7225296      22.352967    
     98500   1.6097203      1.2525511      0              3.6659526      22.410545    
     99000   1.6067249      1.2171032      0              3.6260137      21.87803     
     99500   1.5618496      1.2410236      0              3.5826542      22.479763    
    100000   1.5572316      1.1867542      0              3.5214611      21.521927    
    100500   1.5690351      1.13111        0              3.4835134      21.002914    
    101000   1.5185155      1.1667121      0              3.4433732      21.31016     
    101500   1.4874054      1.1354164      0              3.3654352      20.818646    
    102000   1.4933839      1.1356657      0              3.3746478      20.807425    
    102500   1.4825475      1.1806346      0              3.4033701      21.423281    
    103000   1.5195278      1.1210342      0              3.3992129      20.74132     
    103500   1.4835479      1.1385763      0              3.3628115      20.767995    
    104000   1.451458       1.0890382      0              3.2651621      20.253634    
    104500   1.4461882      1.1327132      0              3.3009363      21.019594    
    105000   1.4110456      1.0597176      0              3.1752525      19.929159    
    105500   1.4007615      1.031707       0              3.1318234      19.50473     
    106000   1.3478451      1.0814102      0              3.1021907      20.231284    
    106500   1.3833365      1.0410021      0              3.1149936      19.754138    
    107000   1.3437504      1.0117069      0              3.0263483      19.158935    
    107500   1.3189719      0.99017969     0              2.9676715      19.053164    
    108000   1.3252766      0.99805965     0              2.9850039      19.14129     
    108500   1.2737163      0.96507273     0              2.8747143      18.603111    
    109000   1.3049212      0.94754661     0              2.9039726      18.413565    
    109500   1.2964894      0.93762592     0              2.8814104      18.275602    
    110000   1.2768689      0.91929759     0              2.8336657      18.055842    
    110500   1.2469115      0.95333001     0              2.822784       18.374669    
    111000   1.2371068      0.88660785     0              2.741362       17.661993    
    111500   1.20501        0.90773203     0              2.7143644      17.927905    
    112000   1.1876024      0.87461439     0              2.6551482      17.474806    
    112500   1.1718772      0.90770525     0              2.6646627      17.841695    
    113000   1.1409314      0.86558278     0              2.5761442      17.265525    
    113500   1.1728909      0.82670798     0              2.5851853      16.830795    
    114000   1.1513087      0.84384936     0              2.5699692      16.977654    
    114500   1.1996942      0.79862972     0              2.5972923      16.622765    
    115000   1.1163336      0.86581739     0              2.5395002      17.296976    
    115500   1.1069547      0.82616539     0              2.4857866      16.696838    
    116000   1.0990701      0.76842251     0              2.4162226      15.994231    
    116500   1.0974083      0.7981809      0              2.4434896      16.353983    
    117000   1.0246982      0.78315727     0              2.319454       16.164449    
    117500   1.041479       0.76546519     0              2.3269208      15.895011    
    118000   0.99428743     0.70614063     0              2.1968435      15.070886    
    118500   1.0073975      0.70383696     0              2.2141953      14.996546    
    119000   1.0173395      0.70838258     0              2.2336466      14.96821     
    119500   1.0090578      0.72958765     0              2.2424353      15.411612    
    120000   0.98877985     0.70577215     0              2.1882177      15.077723    
    120500   0.97666        0.71790167     0              2.1821764      15.237141    
    121000   0.97001997     0.64854069     0              2.1028602      14.153651    
    121500   0.92642561     0.65906194     0              2.0480218      14.413088    
    122000   0.91058006     0.64422473     0              2.0094279      13.98946     
    122500   0.9110331      0.59972862     0              1.965611       13.480154    
    123000   0.88128171     0.61981116     0              1.9410883      13.622754    
    123500   0.85959742     0.59148286     0              1.8802494      13.280072    
    124000   0.84584936     0.61018499     0              1.8783395      13.553914    
    124500   0.84900292     0.56908219     0              1.8419647      13.019713    
    125000   0.81472432     0.58168783     0              1.8031776      13.070791    
    125500   0.81118217     0.60492513     0              1.8211043      13.522919    
    126000   0.79354465     0.54314481     0              1.7328806      12.57253     
    126500   0.78996322     0.54666461     0              1.7310309      12.603821    
    127000   0.75239718     0.49194298     0              1.6199877      11.912053    
    127500   0.73216816     0.52296903     0              1.620685       12.228387    
    128000   0.74836639     0.50766113     0              1.6296626      12.122671    
    128500   0.75301358     0.496545       0              1.6255139      11.812235    
    129000   0.7232791      0.46564996     0              1.5500389      11.315108    
    129500   0.71447288     0.51147128     0              1.5826573      12.011186    
    130000   0.68107421     0.45184148     0              1.472954       11.09316     
    130500   0.66645964     0.43421032     0              1.4334117      10.810813    
    131000   0.64068834     0.42726464     0              1.3878279      10.648722    
    131500   0.63193155     0.40670923     0              1.3541437      10.262818    
    132000   0.61476997     0.40846061     0              1.3301653      10.370142    
    132500   0.59235421     0.41064085     0              1.2987383      10.357257    
    133000   0.60299328     0.38699846     0              1.2910467      9.9736032    
    133500   0.57893963     0.3834529      0              1.2514383      9.8200212    
    134000   0.56679824     0.37560986     0              1.2253921      9.7353037    
    134500   0.55625116     0.35137924     0              1.1853486      9.335882     
    135000   0.55015142     0.35933101     0              1.1841552      9.4187652    
    135500   0.51396402     0.33821287     0              1.1087825      9.0272604    
    136000   0.51461485     0.3331772      0              1.1047226      8.9954708    
    136500   0.49254061     0.29324182     0              1.031692       8.3016853    
    137000   0.47783712     0.27666604     0              0.99307175     7.9341123    
    137500   0.4633529      0.26902841     0              0.9637184      7.679624     
    138000   0.4571112      0.27726571     0              0.96259771     7.987144     
    138500   0.43414276     0.26543136     0              0.91632752     7.7942624    
    139000   0.41296121     0.24720527     0              0.86634463     7.4110376    
    139500   0.40723491     0.2349034      0              0.84545749     7.0502648    
    140000   0.38694704     0.21218247     0              0.79231961     6.662821     
    140500   0.37799788     0.21674416     0              0.78346413     6.7134818    
    141000   0.35067254     0.20619729     0              0.73194926     6.5509027    
    141500   0.35181831     0.19347179     0              0.72094158     6.2477339    
    142000   0.32586329     0.18351731     0              0.67207358     5.963168     
    142500   0.3155742      0.17635532     0              0.6494855      5.8195254    
    143000   0.30282327     0.15840754     0              0.61242066     5.5101861    
    143500   0.29210496     0.14852135     0              0.58646484     5.2372898    
    144000   0.26682627     0.14742741     0              0.54747138     5.1977947    
    144500   0.26044834     0.13405122     0              0.52453298     4.8915674    
    145000   0.23803466     0.11971791     0              0.47659555     4.5686863    
    145500   0.23203092     0.11563985     0              0.46351628     4.4725362    
    146000   0.21943703     0.10519446     0              0.43418929     4.1038241    
    146500   0.20337396     0.098264567    0              0.40317656     3.9505048    
    147000   0.18749659     0.089933949    0              0.37104151     3.7471382    
    147500   0.17390249     0.080863125    0              0.34158949     3.4744353    
    148000   0.16026703     0.070523965    0              0.31080713     3.187249     
    148500   0.1452957      0.064371975    0              0.2822091      2.9527411    
    149000   0.13020815     0.055405111    0              0.25062196     2.6891262    
    149500   0.11680795     0.045725598    0              0.22085197     2.3867584    
    150000   0.10315951     0.037625146    0              0.19228886     2.1020103    
Loop time of 7.59044 on 144 procs for 100000 steps with 2048 atoms

Performance: 11382732.399 tau/day, 13174.459 timesteps/s, 26.981 Matom-step/s
63.8% CPU use with 144 MPI tasks x 1 OpenMP threads

MPI task timing breakdown:
Section |  min time  |  avg time  |  max time  |%varavg| %total
---------------------------------------------------------------
Pair    | 0.079495   | 0.08324    | 0.091405   |   0.9 |  1.10
Neigh   | 0.23901    | 0.24629    | 0.27528    |   1.2 |  3.24
Comm    | 3.5734     | 3.9437     | 4.3707     |   9.5 | 51.96
Output  | 0.77752    | 0.7781     | 0.77896    |   0.0 | 10.25
Modify  | 0.69782    | 1.4054     | 1.8279     |  21.7 | 18.52
Other   |            | 1.134      |            |       | 14.94

Nlocal:        14.2222 ave          19 max          11 min
Histogram: 6 11 34 37 0 26 16 9 4 1
Nghost:        121.361 ave         133 max         113 min
Histogram: 6 11 20 27 23 27 13 7 7 3
Neighs:        80.6597 ave         106 max          56 min
Histogram: 3 7 14 23 28 22 24 9 6 8

Total # of neighbors = 11615
Ave neighs/atom = 5.6713867
Neighbor list builds = 28008
Dangerous builds = 0
Total wall time: 0:00:11
LAMMPS (15 Sep 2022)
OMP_NUM_THREADS environment is not set. Defaulting to 1 thread. (src/comm.cpp:98)
  using 1 OpenMP thread(s) per MPI task
Lattice spacing in x,y,z = 1.4938016 1.4938016 1.4938016
Created orthogonal box = (0 0 0) to (11.950413 11.950413 11.950413)
  4 by 6 by 6 MPI processor grid
Created 2048 atoms
  using lattice units in orthogonal box = (0 0 0) to (11.950413 11.950413 11.950413)
  create_atoms CPU = 0.012 seconds
Generated 0 of 0 mixed pair_coeff terms from geometric mixing rule
Neighbor list info ...
  update: every = 1 steps, delay = 0 steps, check = yes
  max neighbors/atom: 2000, page size: 100000
  master list distance cutoff = 1.3
  ghost atom cutoff = 1.3
  binsize = 0.65, bins = 19 19 19
  1 neighbor lists, perpetual/occasional/extra = 1 0 0
  (1) pair lj/cut, perpetual
      attributes: half, newton on
      pair build: half/bin/atomonly/newton
      stencil: half/bin/3d
      bin: standard
Setting up Verlet run ...
  Unit style    : lj
  Current step  : 0
  Time step     : 0.01
Per MPI rank memory allocation (min/avg/max) = 3.061 | 3.061 | 3.061 Mbytes
   Step          Temp          E_pair         E_mol          TotEng         Press     
         0   3              0              0              4.4978027      3.5982422    
       500   3.0843536      2.4592423      0              7.0835136      40.104966    
      1000   2.9825925      2.3984564      0              6.8701607      39.551062    
      1500   2.9462521      2.3100194      0              6.7272397      38.641909    
      2000   2.9563739      2.284753       0              6.7171485      37.932006    
      2500   2.9943553      2.211503       0              6.7008429      37.57587     
      3000   3.0552516      2.1807432      0              6.7613829      37.315446    
      3500   3.1091109      2.3033046      0              6.9646938      38.647092    
      4000   2.9672341      2.3069262      0              6.7556041      38.315962    
      4500   3.0772363      2.2625149      0              6.8761155      38.16215     
      5000   3.0467961      2.1739407      0              6.7419033      36.93828     
      5500   3.0306255      2.1804896      0              6.7242082      36.823884    
      6000   3.0239107      2.2379764      0              6.7716277      37.871762    
      6500   3.0463963      2.3448212      0              6.9121843      38.958867    
      7000   3.0365016      2.2145213      0              6.7670496      37.395233    
      7500   2.9752625      2.3231909      0              6.7839054      38.605738    
      8000   3.066311       2.196068       0              6.7932886      37.130818    
      8500   3.0705062      2.3036557      0              6.907166       38.78916     
      9000   3.0900062      2.2104459      0              6.843192       37.505695    
      9500   2.8813552      2.3156187      0              6.6355411      38.763743    
     10000   2.9681552      2.3072886      0              6.7573475      38.301941    
     10500   2.980091       2.3056305      0              6.7735843      38.270186    
     11000   3.041838       2.2071359      0              6.767665       37.766325    
     11500   2.9794468      2.171786       0              6.638774       36.871706    
     12000   2.993766       2.2881462      0              6.7766025      38.235183    
     12500   2.96256        2.3170739      0              6.758744       38.505625    
     13000   3.0111852      2.3965123      0              6.9110846      39.414418    
     13500   3.0546816      2.1603058      0              6.7400909      36.687062    
     14000   3.0381766      2.4020043      0              6.957044       39.672077    
     14500   2.9774088      2.2920406      0              6.7559731      38.264476    
     15000   3.1412012      2.3567503      0              7.0662514      38.98145     
     15500   3.0141854      2.2409507      0              6.7600211      37.607359    
     16000   2.9600459      2.4555291      0              6.89343        39.912772    
     16500   3.0005218      2.3071148      0              6.8056998      38.666388    
     17000   3.0121828      2.4153181      0              6.9313861      39.832673    
     17500   3.0086452      2.154472       0              6.6652363      36.729666    
     18000   3.0312343      2.3968737      0              6.9415051      39.55854     
     18500   2.9858134      2.157769       0              6.6343021      36.870987    
     19000   3.0147979      2.2717276      0              6.7917163      38.034473    
     19500   2.958964       2.2000983      0              6.6363771      37.240648    
     20000   3.0316347      2.212443       0              6.7576746      37.304273    
     20500   3.0710317      2.2893709      0              6.8936691      38.534256    
     21000   3.0414796      2.226228       0              6.7862197      37.545961    
     21500   3.073055       2.3692069      0              6.9765386      39.380849    
     22000   3.0644406      2.1788731      0              6.7732896      37.318785    
     22500   3.1084051      2.3781084      0              7.0384394      39.460293    
     23000   2.9517825      2.2694272      0              6.694939       37.851464    
     23500   3.0493654      2.3264188      0              6.8982335      38.767632    
     24000   2.9238366      2.2540418      0              6.6376552      37.441271    
     24500   3.0361199      2.2572662      0              6.8092223      38.193925    
     25000   2.9574726      2.2393685      0              6.6734114      37.60585     
     25500   3.0315653      2.2513723      0              6.7964999      38.183021    
     26000   2.9384555      2.2112741      0              6.6168051      37.511106    
     26500   2.9803119      2.3260021      0              6.7942872      38.587682    
     27000   3.081441       2.2669868      0              6.8868913      38.198202    
     27500   3.0050329      2.3341648      0              6.8395132      38.658923    
     28000   3.0826707      2.2997135      0              6.9214618      38.574026    
     28500   2.9017599      2.4170897      0              6.7676043      39.713292    
     29000   3.0400807      2.2445649      0              6.8024592      37.65763     
     29500   2.9897196      2.2844532      0              6.7668428      37.837117    
     30000   3.0910503      2.3103783      0              6.9446898      38.150163    
     30500   3.0298354      2.2018918      0              6.7444257      37.257908    
     31000   3.0474935      2.1905332      0              6.7595414      37.246121    
     31500   2.9915411      2.4149316      0              6.9000522      39.91372     
     32000   2.9994085      2.1808035      0              6.6777194      37.215123    
     32500   3.0075194      2.1916428      0              6.7007192      37.234128    
     33000   2.9601485      2.4337242      0              6.8717788      39.405483    
     33500   2.9643364      2.121064       0              6.5653975      36.513106    
     34000   2.9399545      2.4170813      0              6.8248598      39.472708    
     34500   3.0312704      2.3035838      0              6.8482693      38.4306      
     35000   3.01845        2.4226104      0              6.9480746      39.773675    
     35500   2.8941226      2.2725864      0              6.6116506      38.076724    
     36000   2.9923216      2.3084781      0              6.7947689      38.530586    
     36500   2.9430374      2.2624049      0              6.6748054      37.915071    
     37000   3.0377584      2.2431547      0              6.7975673      38.023125    
     37500   2.9979185      2.3111009      0              6.805783       38.417612    
     38000   2.7912705      2.2518244      0              6.4366858      37.623857    
     38500   3.0101547      2.2475356      0              6.760563       37.906654    
     39000   3.0376938      2.1712826      0              6.7255984      37.196151    
     39500   2.9541069      2.3128384      0              6.7418352      38.273441    
     40000   3.0458052      2.2398035      0              6.8062805      37.518139    
     40500   3.0937426      2.5011809      0              7.1395289      40.866298    
     41000   2.979396       2.2883687      0              6.7552806      38.272453    
     41500   3.0187374      2.3580517      0              6.8839468      38.869389    
     42000   3.0175861      2.2090914      0              6.7332604      37.54142     
     42500   3.0561341      2.3081568      0              6.8901196      38.476462    
     43000   2.9747705      2.2890189      0              6.7489958      38.140379    
     43500   2.8991874      2.3964947      0              6.7431524      39.417451    
     44000   3.0028212      2.2498773      0              6.7519098      38.081628    
     44500   2.9293284      2.3619099      0              6.753757       38.685231    
     45000   3.0254656      2.2171704      0              6.7531529      37.91688     
     45500   3.0340676      2.360314       0              6.9091932      39.247972    
     46000   2.9577818      2.2524569      0              6.6869632      37.87343     
     46500   3.0061287      2.2244315      0              6.7314229      37.849596    
     47000   2.9611224      2.2550558      0              6.6945706      37.88619     
     47500   3.0289957      2.3543081      0              6.8955832      39.064049    
     48000   2.8979999      2.3230739      0              6.6679512      38.685757    
     48500   3.1159882      2.2460791      0              6.9177792      38.017439    
     49000   3.0618507      2.2710776      0              6.8616112      38.24173     
     49500   2.9785451      2.2817312      0              6.7473672      38.126222    
     50000   3.083637       2.3927411      0              7.0159381      39.361192    
Loop time of 3.84965 on 144 procs for 50000 steps with 2048 atoms

Performance: 11221785.091 tau/day, 12988.177 timesteps/s, 26.600 Matom-step/s
65.1% CPU use with 144 MPI tasks x 1 OpenMP threads

MPI task timing breakdown:
Section |  min time  |  avg time  |  max time  |%varavg| %total
---------------------------------------------------------------
Pair    | 0.041363   | 0.047963   | 0.061538   |   2.3 |  1.25
Neigh   | 0.14518    | 0.15981    | 0.18138    |   2.5 |  4.15
Comm    | 2.0817     | 2.2875     | 2.5107     |   6.5 | 59.42
Output  | 0.0057508  | 0.0060836  | 0.0096932  |   0.4 |  0.16
Modify  | 0.37741    | 0.76783    | 1.0124     |  15.3 | 19.95
Other   |            | 0.5805     |            |       | 15.08

Nlocal:        14.2222 ave          21 max           8 min
Histogram: 4 6 8 41 22 19 26 11 3 4
Nghost:         119.34 ave         136 max         108 min
Histogram: 1 10 32 35 23 24 12 3 3 1
Neighs:        84.9792 ave         127 max          49 min
Histogram: 5 10 17 28 24 23 17 12 5 3

Total # of neighbors = 12237
Ave neighs/atom = 5.9750977
Neighbor list builds = 20092
Dangerous builds = 1
Generated 0 of 0 mixed pair_coeff terms from geometric mixing rule
Setting up Verlet run ...
  Unit style    : lj
  Current step  : 50000
  Time step     : 0.01
Per MPI rank memory allocation (min/avg/max) = 3.102 | 3.103 | 3.103 Mbytes
   Step          Temp          E_pair         E_mol          TotEng         Press     
     50000   3.083637       2.3927411      0              7.0159381      39.361192    
     50500   2.9382138      2.3106801      0              6.7158489      38.50536     
     51000   3.0903455      2.215542       0              6.8487969      37.319089    
     51500   2.9203113      2.1028747      0              6.4812028      36.074643    
     52000   2.9722098      2.1771501      0              6.633288       36.833357    
     52500   2.8239437      2.2697717      0              6.5036189      37.771053    
     53000   2.883774       2.3321608      0              6.6557096      38.683062    
     53500   2.9755915      2.1379267      0              6.5991345      36.688463    
     54000   2.9766893      2.2002897      0              6.6631435      37.098651    
     54500   2.7866068      2.1627781      0              6.3406474      37.0148      
     55000   2.874703       2.2588118      0              6.5687608      37.887348    
     55500   2.877416       2.0496579      0              6.3636744      35.224149    
     56000   2.8559284      2.1868061      0              6.4686069      36.942515    
     56500   2.7616157      2.1483254      0              6.2887263      36.487692    
     57000   2.8848641      2.0896051      0              6.4147883      36.164107    
     57500   2.7168604      2.0605158      0              6.1338165      35.526392    
     58000   2.8079549      2.0576159      0              6.2674916      35.788909    
     58500   2.6639184      1.9470418      0              5.9409682      34.360892    
     59000   2.7567772      1.9861646      0              6.1193114      34.654939    
     59500   2.6702752      1.9740153      0              5.9774723      34.448275    
     60000   2.7121353      2.0220566      0              6.0882732      34.767312    
     60500   2.7534239      2.0166415      0              6.1447607      35.015361    
     61000   2.6478827      2.0174291      0              5.9873137      34.715048    
     61500   2.7410056      2.0033076      0              6.1128085      34.820893    
     62000   2.6362846      1.9291401      0              5.8816361      34.254887    
     62500   2.6481671      2.0370178      0              6.0073289      34.72826     
     63000   2.6439637      1.9148987      0              5.8789077      33.730978    
     63500   2.601974       2.0045627      0              5.905618       34.658635    
     64000   2.5811322      1.871558       0              5.7413658      33.334866    
     64500   2.6014954      1.8870906      0              5.7874284      33.387622    
     65000   2.5445161      1.7953627      0              5.6102732      32.493235    
     65500   2.5876874      1.8401186      0              5.7197545      32.565299    
     66000   2.5581225      1.828661       0              5.6639711      32.648001    
     66500   2.550615       1.829005       0              5.6530594      32.591101    
     67000   2.495803       1.8038999      0              5.5457764      32.305037    
     67500   2.5120598      1.7717467      0              5.5379964      31.99773     
     68000   2.4457116      1.8321098      0              5.4988859      32.672768    
     68500   2.4620232      1.8762882      0              5.5675198      33.089239    
     69000   2.4790921      1.7522182      0              5.4690406      31.898886    
     69500   2.4504088      1.7378599      0              5.4116784      31.267488    
     70000   2.4846358      1.7948382      0              5.519972       32.111827    
     70500   2.4125626      1.7135905      0              5.3306675      31.132851    
     71000   2.4259021      1.7806006      0              5.417677       32.107474    
     71500   2.3444863      1.6184062      0              5.1334185      29.828591    
     72000   2.3668732      1.6759043      0              5.2244805      30.728295    
     72500   2.3529507      1.6073625      0              5.1350652      29.76208     
     73000   2.3478001      1.6382744      0              5.158255       29.880635    
     73500   2.3405013      1.7237862      0              5.232824       31.15405     
     74000   2.3267307      1.6498034      0              5.1381953      30.116389    
     74500   2.3749539      1.6793207      0              5.2400121      31.013445    
     75000   2.2424453      1.6546284      0              5.016654       30.314265    
     75500   2.2530129      1.5956107      0              4.97348        29.595837    
     76000   2.1867938      1.6518113      0              4.9304002      30.254578    
     76500   2.2513649      1.5317142      0              4.9071126      28.88088     
     77000   2.1398258      1.6063783      0              4.8145498      29.637815    
     77500   2.2257532      1.5582726      0              4.8952722      29.107573    
     78000   2.2259224      1.6157187      0              4.952972       29.548299    
     78500   2.2080919      1.5528905      0              4.8634111      28.965139    
     79000   2.2528348      1.5107758      0              4.888378       28.629392    
     79500   2.1494557      1.4898581      0              4.7124673      28.002682    
     80000   2.0878771      1.4930526      0              4.623339       28.228508    
     80500   2.073364       1.5453736      0              4.653901       28.913383    
     81000   2.0623335      1.5322932      0              4.6242829      28.691939    
     81500   2.0736831      1.4721455      0              4.5811513      27.878734    
     82000   2.0755496      1.5267924      0              4.6385966      28.557534    
     82500   2.03509        1.4846932      0              4.5358377      28.065011    
     83000   1.9519741      1.4455313      0              4.3720629      27.563791    
     83500   2.0099463      1.3625062      0              4.3759535      26.442844    
     84000   1.9445767      1.3752661      0              4.290707       26.573145    
     84500   1.9984456      1.3544083      0              4.3506129      26.349753    
     85000   1.9796116      1.3773447      0              4.3453123      26.55005     
     85500   1.9810994      1.2797937      0              4.2499918      25.372639    
     86000   1.9917991      1.3241136      0              4.3103535      25.942992    
     86500   1.9765897      1.3377534      0              4.3011903      26.115772    
     87000   1.9272297      1.3790073      0              4.2684404      26.768059    
     87500   1.8929377      1.3530799      0              4.1911001      26.210066    
     88000   1.8953863      1.3021892      0              4.1438804      25.4326      
     88500   1.9060136      1.2548472      0              4.1124716      24.927252    
     89000   1.8648305      1.2584002      0              4.0542801      24.696237    
     89500   1.8502674      1.2088149      0              3.9828608      24.25012     
     90000   1.8316433      1.3013468      0              4.0474701      25.364744    
     90500   1.8609962      1.3052261      0              4.0953573      25.184609    
     91000   1.8229725      1.2810826      0              4.0142062      25.016191    
     91500   1.8343186      1.2927466      0              4.042881       25.185742    
     92000   1.8063647      1.2109336      0              3.9191576      24.360126    
     92500   1.8457131      1.2716354      0              4.0388532      25.214768    
     93000   1.7629484      1.1520043      0              3.7951357      23.493105    
     93500   1.7416543      1.1480379      0              3.7592438      23.508701    
     94000   1.6929073      1.1814632      0              3.7195843      23.837667    
     94500   1.6857945      1.1595872      0              3.6870442      23.682363    
     95000   1.6520122      1.154944       0              3.6317523      23.468352    
     95500   1.7143752      1.095317       0              3.6656242      22.677044    
     96000   1.6607207      1.127226       0              3.6170908      23.315514    
     96500   1.6693061      1.1472135      0              3.6499499      23.334716    
     97000   1.5672849      1.1076878      0              3.4574672      22.4663      
     97500   1.6206497      1.0793703      0              3.5091579      22.424119    
     98000   1.6077579      0.97457247     0              3.3850318      21.079641    
[...]
65.6% CPU use with 144 MPI tasks x 1 OpenMP threads

MPI task timing breakdown:
Section |  min time  |  avg time  |  max time  |%varavg| %total
---------------------------------------------------------------
Pair    | 0.055693   | 0.068037   | 0.091438   |   3.2 |  1.78
Neigh   | 0.098104   | 0.14193    | 0.19946    |   5.8 |  3.72
Comm    | 2.0943     | 2.28       | 2.4948     |   5.8 | 59.78
Output  | 0.0056908  | 0.0059715  | 0.0095293  |   0.4 |  0.16
Modify  | 0.42042    | 0.74239    | 0.95411    |  13.9 | 19.47
Other   |            | 0.5756     |            |       | 15.09

Nlocal:        14.2222 ave          20 max           8 min
Histogram: 3 3 14 22 21 41 8 10 13 9
Nghost:        127.201 ave         157 max         111 min
Histogram: 43 21 0 4 34 25 1 0 2 14
Neighs:        87.3403 ave         125 max          49 min
Histogram: 3 3 13 36 17 30 11 13 14 4

Total # of neighbors = 12577
Ave neighs/atom = 6.1411133
Neighbor list builds = 20771
Dangerous builds = 3
Generated 0 of 0 mixed pair_coeff terms from geometric mixing rule
Setting up Verlet run ...
  Unit style    : lj
  Current step  : 50000
  Time step     : 0.01
Per MPI rank memory allocation (min/avg/max) = 3.102 | 3.103 | 3.104 Mbytes
   Step          Temp          E_pair         E_mol          TotEng         Press     
     50000   3.095688       6.0225449      0              10.66381       115.91849    
     50500   3.12916        6.212615       0              10.904063      118.0514     
     51000   2.9629131      6.0452355      0              10.487435      115.6328     
     51500   3.067064       5.8688632      0              10.467213      114.12648    
     52000   2.9696169      6.0411516      0              10.493402      115.9436     
     52500   2.9823409      5.9411961      0              10.412523      114.639      
     53000   3.0010472      5.9626054      0              10.461978      115.02755    
     53500   2.9542864      5.9964379      0              10.425704      115.30875    
     54000   2.9251058      5.8451834      0              10.2307        113.4162     
     54500   2.9671354      5.757973       0              10.206503      113.0799     
     55000   2.9481814      5.7877725      0              10.207885      113.09414    
     55500   2.8926732      5.7894512      0              10.126342      113.11593    
     56000   2.9090714      5.7413131      0              10.10279       112.37024    
     56500   2.8364158      5.7846361      0              10.037182      112.83605    
     57000   2.8563845      5.7212045      0              10.003689      112.51284    
     57500   2.8332003      5.6680207      0              9.9157461      111.64159    
     58000   2.7739621      5.7396055      0              9.898517       112.32513    
     58500   2.8540566      5.5468128      0              9.8258073      109.99173    
     59000   2.7706364      5.5990475      0              9.7529727      110.70561    
     59500   2.8135331      5.5518723      0              9.7701113      109.86658    
     60000   2.8149673      5.5136708      0              9.73406        109.71434    
     60500   2.7265795      5.5479599      0              9.6358321      110.16631    
     61000   2.7224497      5.4566576      0              9.5383382      108.88394    
     61500   2.6808673      5.5576239      0              9.5769613      110.05294    
     62000   2.6967911      5.4522903      0              9.4955017      109.07984    
     62500   2.630316       5.569044       0              9.5125915      110.26582    
     63000   2.6306702      5.4103363      0              9.3544148      108.38557    
     63500   2.6269343      5.4399811      0              9.3784585      108.46852    
     64000   2.5793842      5.4407592      0              9.3079463      108.82923    
     64500   2.5896352      5.4067863      0              9.2893424      108.36347    
     65000   2.5807447      5.3483913      0              9.2176181      107.40462    
     65500   2.6210663      5.2498015      0              9.1794813      106.71195    
     66000   2.5219229      5.295375       0              9.0764123      106.81472    
     66500   2.5407635      5.2370445      0              9.0463289      106.48548    
     67000   2.5890525      5.1323228      0              9.0140054      105.28112    
     67500   2.5499832      5.1778342      0              9.0009414      105.52065    
     68000   2.5455936      5.1099448      0              8.9264707      105.05845    
     68500   2.4663375      5.1620868      0              8.8597866      105.3343     
     69000   2.4774857      5.1601797      0              8.8745937      105.61201    
     69500   2.447341       5.1210352      0              8.7902542      105.1021     
     70000   2.4714851      5.0448659      0              8.7502834      104.19814    
     70500   2.4263023      5.0363746      0              8.674051       103.61359    
     71000   2.4616065      4.9430137      0              8.6336206      102.88386    
     71500   2.4307936      4.972595       0              8.6170051      102.92999    
     72000   2.3763353      4.9790272      0              8.5417897      103.1615     
     72500   2.3809992      4.94144        0              8.511195       102.74309    
     73000   2.2821777      5.0340857      0              8.4556807      103.79408    
     73500   2.3485004      4.9071678      0              8.4281982      102.09907    
     74000   2.294036       4.9139999      0              8.3533736      102.35626    
     74500   2.3024489      4.8730578      0              8.3250447      102.02806    
     75000   2.3612252      4.7211168      0              8.2612251      100.33058    
     75500   2.3138585      4.757813       0              8.226906       100.2759     
     76000   2.2819385      4.7463254      0              8.1675618      100.08159    
     76500   2.2517621      4.7443756      0              8.1203695      100.0981     
     77000   2.2268138      4.7500343      0              8.088624       100.01058    
     77500   2.2084198      4.730481       0              8.0414932      99.840806    
     78000   2.2631376      4.5652571      0              7.958306       97.942368    
     78500   2.2069233      4.6284278      0              7.9371963      98.95466     
     79000   2.194725       4.6290853      0              7.9195653      98.720978    
     79500   2.1486874      4.6139439      0              7.8354012      98.38131     
     80000   2.1147746      4.5735961      0              7.7442092      97.900471    
     80500   2.0913559      4.6431185      0              7.7786205      98.889464    
     81000   2.1470681      4.5087808      0              7.7278104      97.215495    
     81500   2.0985774      4.516265       0              7.662594       97.388528    
     82000   2.1183357      4.4193493      0              7.5953013      96.127857    
     82500   2.1472613      4.5380989      0              7.7574181      97.533882    
     83000   2.0512198      4.3704057      0              7.4457331      95.547981    
     83500   2.1044794      4.4931179      0              7.6482956      96.941099    
     84000   2.0059103      4.385779       0              7.3931754      95.5812      
     84500   2.0163269      4.3318184      0              7.354832       95.004085    
     85000   2.0196231      4.3024639      0              7.3304194      94.681499    
     85500   1.9967153      4.2541078      0              7.2477183      94.170299    
     86000   1.9180134      4.3294031      0              7.2050184      95.028311    
     86500   1.9078338      4.2709615      0              7.1313149      93.924155    
     87000   1.9357696      4.1923352      0              7.0945718      93.353765    
     87500   1.9204792      4.2164519      0              7.0957641      93.651279    
     88000   1.8875132      4.206972       0              7.0368593      93.37704     
     88500   1.8871582      4.11901        0              6.9483651      92.306127    
     89000   1.8818591      4.1154954      0              6.9369058      92.178928    
     89500   1.9187672      4.1280933      0              7.0048387      92.531272    
     90000   1.819296       4.1099896      0              6.8376011      92.278321    
     90500   1.8466326      4.0674565      0              6.8360528      91.580622    
     91000   1.8498949      3.9943298      0              6.7678173      90.764541    
     91500   1.7774647      3.9598429      0              6.6247381      90.503999    
     92000   1.7947925      4.0138806      0              6.7047548      90.773559    
     92500   1.8060784      3.9537442      0              6.6615389      90.217479    
     93000   1.7741174      3.9461476      0              6.6060244      90.01012     
     93500   1.7258486      3.9695553      0              6.5570641      90.390674    
     94000   1.7411138      3.9664247      0              6.5768202      90.184787    
     94500   1.6899169      3.8807375      0              6.4143751      89.495516    
     95000   1.7203584      3.8987696      0              6.4780472      89.464328    
     95500   1.727103       3.6546714      0              6.2440609      86.473014    
     96000   1.659872       3.7714411      0              6.2600334      87.995235    
     96500   1.6882354      3.7250056      0              6.2561223      87.225918    
     97000   1.6320784      3.730119       0              6.1770411      87.367495    
     97500   1.651132       3.7804         0              6.2558886      88.049836    
     98000   1.5871796      3.6678976      0              6.0475045      86.257991    
     98500   1.6044043      3.7530257      0              6.158457       87.61328     
     99000   1.5630402      3.6030992      0              5.9465147      85.708622    
     99500   1.5710715      3.6649892      0              6.0204457      86.300794    
    100000   1.5811995      3.5734824      0              5.9441235      85.240175    
    100500   1.5944194      3.705277       0              6.0957384      86.923926    
    101000   1.5363019      3.5103997      0              5.8137273      84.538925    
    101500   1.4760883      3.5462213      0              5.7592727      84.82459     
    102000   1.4748479      3.5598795      0              5.7710711      84.730724    
    102500   1.4049645      3.4554299      0              5.5618477      83.675256    
    103000   1.4301067      3.5087472      0              5.6528597      84.128217    
    103500   1.4408997      3.4109754      0              5.5712696      82.962551    
    104000   1.4342381      3.4299906      0              5.5802972      83.327444    
    104500   1.4108791      3.3297484      0              5.4450338      82.074594    
    105000   1.4543713      3.3981108      0              5.5786026      82.852387    
    105500   1.3591947      3.3736341      0              5.4114307      82.471975    
    106000   1.3493875      3.292064       0              5.3151569      81.494242    
    106500   1.3648019      3.3021584      0              5.3483616      81.832915    
    107000   1.3313447      3.2123887      0              5.2084306      80.567489    
    107500   1.332072       3.2560879      0              5.2532202      81.173038    
    108000   1.2993075      3.1889475      0              5.1369571      79.930171    
    108500   1.2891146      3.2007046      0              5.1334324      80.133117    
    109000   1.3341028      3.1703072      0              5.1704843      79.729763    
    109500   1.2717857      3.1506511      0              5.0573982      79.575837    
    110000   1.2333964      3.1165626      0              4.9657538      79.025901    
    110500   1.2708718      3.0954205      0              5.0007973      78.787093    
    111000   1.2266538      2.9874286      0              4.8265109      77.481308    
    111500   1.1979038      3.1287449      0              4.9247232      79.095688    
    112000   1.1747212      3.0688422      0              4.8300636      78.425999    
    112500   1.1818792      2.9898221      0              4.7617752      77.584789    
    113000   1.1776345      3.0393242      0              4.8049133      78.159686    
    113500   1.157754       2.9457134      0              4.6814964      76.845851    
    114000   1.1569588      2.8549503      0              4.5895411      75.433881    
    114500   1.1262039      2.9405846      0              4.6290657      76.692451    
    115000   1.1020267      2.8194751      0              4.4717079      75.263322    
    115500   1.1359291      2.8531702      0              4.5562318      75.531473    
    116000   1.0563501      2.8150493      0              4.3988007      75.04371     
    116500   1.0579556      2.8827073      0              4.4688659      75.857165    
    117000   1.0717387      2.7254756      0              4.3322988      73.930613    
    117500   1.081654       2.7217695      0              4.3434582      73.803074    
    118000   1.0340203      2.6995646      0              4.2498377      73.655994    
    118500   1.0393475      2.7541834      0              4.3124434      74.113266    
    119000   0.96985596     2.7077373      0              4.1618109      73.348933    
    119500   0.98921649     2.7057394      0              4.1888396      73.509953    
    120000   0.96653066     2.5908269      0              4.039915       72.007542    
    120500   0.96498323     2.6016321      0              4.0484002      72.054597    
    121000   0.94241193     2.5565332      0              3.9694609      71.395196    
    121500   0.93042916     2.5792742      0              3.9742364      71.867726    
    122000   0.89268382     2.5195517      0              3.8579236      70.855373    
    122500   0.90298826     2.528699       0              3.88252        70.996975    
    123000   0.88572768     2.4579867      0              3.7859295      70.168691    
    123500   0.88450122     2.4801888      0              3.8062928      70.373315    
    124000   0.84128887     2.4177757      0              3.6790928      69.586982    
    124500   0.85216291     2.4190422      0              3.6966624      69.552041    
    125000   0.82998249     2.3878502      0              3.6322161      69.187788    
    125500   0.82615315     2.3533812      0              3.5920059      68.681461    
    126000   0.80968691     2.3270535      0              3.5409909      68.332648    
    126500   0.78990948     2.3127991      0              3.4970847      68.122035    
    127000   0.75393608     2.2906886      0              3.4210405      67.824493    
    127500   0.7745304      2.2733326      0              3.4345609      67.470513    
    128000   0.74352103     2.2087785      0              3.3235154      66.631504    
    128500   0.73462984     2.2517201      0              3.3531268      67.349573    
    129000   0.70015677     2.1989861      0              3.2487084      66.461336    
    129500   0.69956656     2.1660595      0              3.214897       65.978262    
    130000   0.66374114     2.109085       0              3.1042106      65.189828    
    130500   0.67713954     2.0817839      0              3.0969973      64.780634    
    131000   0.64829705     2.0574581      0              3.0294288      64.465075    
    131500   0.6543238      2.0821008      0              3.0631072      64.791971    
    132000   0.61096546     2.0401212      0              2.9561219      64.259365    
    132500   0.62063085     2.0009979      0              2.9314896      63.809575    
    133000   0.58876467     1.9827281      0              2.8654439      63.479539    
    133500   0.58250371     1.9532051      0              2.826534       62.931009    
    134000   0.57896199     1.9105107      0              2.7785297      62.461953    
    134500   0.55296666     1.9178707      0              2.7469157      62.437913    
    135000   0.53198741     1.8653605      0              2.662952       61.705416    
    135500   0.52433034     1.8803168      0              2.6664283      61.88857     
    136000   0.50603794     1.8197755      0              2.5784618      61.116561    
    136500   0.49952323     1.8083131      0              2.5572321      60.952107    
    137000   0.4663005      1.7784159      0              2.4775251      60.483695    
    137500   0.44768495     1.7551477      0              2.4263473      60.253464    
    138000   0.44546737     1.724796       0              2.3926708      59.786391    
    138500   0.438862       1.6976664      0              2.3556379      59.416313    
    139000   0.42608868     1.6646174      0              2.3034383      59.036239    
    139500   0.40329076     1.625929       0              2.2305698      58.495655    
    140000   0.39356471     1.6125504      0              2.2026092      58.261145    
    140500   0.37494635     1.5993466      0              2.1614915      58.117755    
    141000   0.36568188     1.5667006      0              2.1149556      57.659769    
    141500   0.34951675     1.5422944      0              2.0663135      57.318161    
    142000   0.33865404     1.5155864      0              2.0233195      56.939504    
    142500   0.32261233     1.4888909      0              1.9725732      56.609972    
    143000   0.30504964     1.4689287      0              1.9262798      56.333299    
    143500   0.28899967     1.4451622      0              1.8784501      55.989404    
    144000   0.27713939     1.4153721      0              1.8308782      55.637918    
    144500   0.26599127     1.3849872      0              1.7837793      55.241963    
    145000   0.24280957     1.3712053      0              1.7352418      55.0665      
    145500   0.2321417      1.339791       0              1.6878335      54.684278    
    146000   0.21892713     1.3123744      0              1.6406047      54.378411    
    146500   0.20707896     1.282364       0              1.5928308      54.049524    
    147000   0.18909541     1.2632122      0              1.5467168      53.767056    
    147500   0.17546434     1.2357915      0              1.4988595      53.467706    
    148000   0.16062998     1.2106348      0              1.4514621      53.182435    
    148500   0.1464843      1.1858665      0              1.4054856      52.912889    
    149000   0.13413539     1.1568437      0              1.3579486      52.626375    
    149500   0.12081447     1.129808       0              1.3109412      52.354697    
    150000   0.10450899     1.1082743      0              1.2649613      52.146898    
Loop time of 6.76715 on 144 procs for 100000 steps with 2048 atoms

Performance: 12767568.579 tau/day, 14777.278 timesteps/s, 30.264 Matom-step/s
65.2% CPU use with 144 MPI tasks x 1 OpenMP threads

MPI task timing breakdown:
Section |  min time  |  avg time  |  max time  |%varavg| %total
---------------------------------------------------------------
Pair    | 0.10086    | 0.12881    | 0.17043    |   4.4 |  1.90
Neigh   | 0.10442    | 0.14686    | 0.20802    |   5.6 |  2.17
Comm    | 3.3569     | 3.7183     | 4.1473     |   9.1 | 54.95
Output  | 0.308      | 0.30873    | 0.3095     |   0.1 |  4.56
Modify  | 0.66845    | 1.3589     | 1.7976     |  21.1 | 20.08
Other   |            | 1.106      |            |       | 16.34

Nlocal:        14.2222 ave          21 max           8 min
Histogram: 5 4 13 37 21 22 26 6 5 5
Nghost:        126.111 ave         158 max         110 min
Histogram: 44 20 0 6 45 13 0 0 10 6
Neighs:        85.3333 ave         126 max          48 min
Histogram: 5 5 15 32 22 25 24 6 3 7

Total # of neighbors = 12288
Ave neighs/atom = 6
Neighbor list builds = 22220
Dangerous builds = 2
Total wall time: 0:00:10
